POL
   628
  -1.6718000   2.3453000  -1.9645000  -2.2669000   0.9681000  -2.3315000
  -3.7168000   1.1238000  -2.7916000  -4.0564000   0.8455000  -4.1220000
  -5.3474000   1.0975000  -4.6035000  -6.3355000   1.6353000  -3.7656000
  -7.7003000   1.9966000  -4.3082000  -8.8002000   0.9218000  -4.2387000
 -10.0747000   1.5127000  -4.8504000  -9.0968000   0.5288000  -2.8011000
  -8.4153000  -0.3144000  -5.0338000  -6.0037000   1.8885000  -2.4269000
  -4.7126000   1.6353000  -1.9468000  -1.7941000   3.3960000  -3.0678000
  -2.1261000   2.7332000  -1.0452000  -0.6039000   2.2385000  -1.7741000
  -1.6912000   0.5883000  -3.1865000  -3.3056000   0.4624000  -4.8110000
  -5.5538000   0.9053000  -5.6553000  -7.6086000   2.2862000  -5.3634000
  -8.0844000   2.8762000  -3.7749000 -10.8644000   0.7565000  -4.8067000
  -9.8653000   1.7851000  -5.8890000 -10.3594000   2.3951000  -4.2699000
  -8.2233000   0.0222000  -2.3828000  -9.3304000   1.4342000  -2.2336000
  -9.9533000  -0.1525000  -2.7979000  -9.2674000  -1.0012000  -5.0404000
  -7.5597000  -0.7954000  -4.5526000  -8.1665000  -0.0087000  -6.0542000
  -6.7311000   2.3275000  -1.7456000  -4.4830000   1.8815000  -0.9114000
  -2.1660000  -0.1033000  -1.2056000  -0.7600000  -0.5043000  -0.6486000
   0.2021000  -0.9153000  -1.7642000   0.0998000  -2.1996000  -2.3226000
   0.9791000  -2.6306000  -3.3246000   1.9855000  -1.7842000  -3.8083000
   2.9704000  -2.2605000  -4.8531000   2.6023000  -2.0346000  -6.3308000
   3.7479000  -2.5785000  -7.1915000   2.4330000  -0.5556000  -6.6406000
   1.3304000  -2.7785000  -6.7037000   2.0796000  -0.4950000  -3.2663000
   1.1984000  -0.0670000  -2.2635000  -2.7938000   0.1874000  -0.3519000
  -2.6344000  -1.0243000  -1.5938000  -0.9510000  -1.4286000  -0.0773000
  -0.6641000  -2.8892000  -1.9644000   0.8756000  -3.6469000  -3.7020000
   3.1401000  -3.3384000  -4.7311000   3.9394000  -1.7702000  -4.6910000
   3.8643000  -3.6450000  -6.9774000   4.6609000  -2.0326000  -6.9360000
   3.4947000  -2.4259000  -8.2449000   1.5596000  -0.1770000  -6.1032000
   2.2785000  -0.4431000  -7.7182000   3.3399000  -0.0288000  -6.3300000
   0.4886000  -2.3372000  -6.1639000   1.1712000  -2.6741000  -7.7815000
   1.4530000  -3.8326000  -6.4385000   2.8553000   0.1936000  -3.5992000
   1.3226000   0.9409000  -1.8744000  -0.1969000   0.5014000   0.4152000
   1.0089000  -0.0253000   1.2573000   0.6071000  -1.1383000   2.2093000
   1.2429000  -2.3792000   2.1007000   1.0081000  -3.3919000   3.0390000
   0.1153000  -3.1937000   4.1022000  -0.0622000  -4.2477000   5.1728000
  -1.1697000  -5.2956000   4.9637000  -1.1555000  -6.2424000   6.1689000
  -2.5393000  -4.6426000   4.8842000  -0.9229000  -6.1155000   3.7086000
  -0.5593000  -1.9666000   4.1813000  -0.3231000  -0.9544000   3.2423000
   0.1237000   1.4260000  -0.0679000  -1.0124000   0.7886000   1.0908000
   1.7340000  -0.4233000   0.5409000   1.9706000  -2.5555000   1.3093000
   1.5694000  -4.3206000   2.9474000   0.8773000  -4.8022000   5.2982000
  -0.2674000  -3.7594000   6.1346000  -1.3439000  -5.6545000   7.0722000
  -0.1738000  -6.7226000   6.2194000  -1.9402000  -6.9923000   6.0312000
  -3.2972000  -5.4311000   4.8424000  -2.6832000  -4.0250000   5.7755000
  -2.5919000  -4.0348000   3.9772000  -1.6731000  -6.9110000   3.6613000
   0.0818000  -6.5445000   3.7645000  -1.0204000  -5.4665000   2.8343000
  -1.2477000  -1.7607000   4.9999000  -0.8377000  -0.0020000   3.3605000
   1.7443000   1.1372000   2.0031000   2.9571000   0.7612000   2.9499000
   3.5692000   2.0285000   3.4881000   4.6140000   2.7071000   2.8362000
   5.3653000   3.6547000   3.5169000   4.9503000   4.0525000   4.7846000
   5.7237000   5.1000000   5.5537000   5.3457000   6.5742000   5.3200000
   6.2568000   7.4384000   6.1969000   5.5567000   6.9742000   3.8690000
   3.9031000   6.8426000   5.7153000   3.8074000   3.4822000   5.3501000
   3.1214000   2.4724000   4.7235000   1.0034000   1.6988000   2.5899000
   2.1071000   1.8399000   1.2395000   2.5431000   0.1965000   3.8028000
   4.9356000   2.4164000   1.8401000   6.3040000   4.0110000   3.0861000
   6.7932000   5.0078000   5.3225000   5.6192000   4.9143000   6.6307000
   6.0953000   7.1602000   7.2426000   7.2947000   7.2536000   5.9045000
   5.9976000   8.4895000   6.0378000   5.3793000   8.0503000   3.7769000
   6.5863000   6.7341000   3.5878000   4.8453000   6.4302000   3.2422000
   3.2404000   6.3024000   5.0343000   3.7160000   7.9179000   5.6344000
   3.7571000   6.5089000   6.7467000   3.4233000   3.7712000   6.3040000
   2.2640000   2.0148000   5.2149000   4.0635000  -0.1075000   2.3036000
   5.3592000  -0.6900000   3.1068000   5.6612000  -2.0148000   2.3619000
   5.4928000  -2.0357000   0.9618000   5.2445000  -3.2172000   0.2904000
   5.4009000  -4.4301000   0.9445000   5.1291000  -5.7297000   0.2131000
   6.2741000  -6.3490000  -0.6031000   7.4023000  -6.7303000   0.3204000
   6.7179000  -5.4138000  -1.7232000   5.7468000  -7.6383000  -1.2454000
   5.8006000  -4.4322000   2.2901000   5.9012000  -3.2272000   3.0112000
   3.5074000  -0.9784000   1.9510000   4.4142000   0.4037000   1.3984000
   5.0572000  -0.8762000   4.1580000   5.3721000  -1.1152000   0.3926000
   4.8364000  -3.1422000  -0.7114000   4.2829000  -5.5865000  -0.4727000
   4.8152000  -6.4930000   0.9365000   8.1288000  -7.3243000  -0.2404000
   7.8658000  -5.8199000   0.7057000   7.0019000  -7.3312000   1.1432000
   7.4286000  -5.9470000  -2.3625000   5.8385000  -5.1180000  -2.3017000
   7.2040000  -4.5394000  -1.2822000   4.9280000  -7.3835000  -1.9256000
   5.3930000  -8.2971000  -0.4465000   6.5666000  -8.1127000  -1.7905000
   5.9809000  -5.3707000   2.8162000   6.1445000  -3.2825000   4.0690000
   6.6534000   0.2075000   3.0535000   7.9503000  -0.1937000   3.8425000
   7.7516000  -0.2617000   5.3624000   7.1762000   0.8025000   6.0733000
   6.9999000   0.7318000   7.4607000   7.3969000  -0.4035000   8.1809000
   7.2593000  -0.4489000   9.6878000   5.9535000  -1.0243000  10.2667000
   6.0248000  -0.9145000  11.7949000   5.7852000  -2.4912000   9.9041000
   4.7406000  -0.2412000   9.7882000   7.9707000  -1.4696000   7.4720000
   8.1450000  -1.3990000   6.0824000   6.9204000   0.3063000   1.9977000
   6.4022000   1.2033000   3.3992000   8.3059000  -1.1796000   3.5109000
   6.8759000   1.7131000   5.5590000   6.5728000   1.5943000   7.9695000
   7.3614000   0.5678000  10.0912000   8.0820000  -1.0394000  10.1132000
   6.1420000   0.1406000  12.0616000   5.0984000  -1.3147000  12.2163000
   6.8830000  -1.4977000  12.1420000   5.6470000  -2.5772000   8.8236000
   4.9015000  -2.8782000  10.4214000   6.6796000  -3.0321000  10.2245000
   4.6200000  -0.3952000   8.7132000   4.8978000   0.8167000  10.0149000
   3.8582000  -0.6155000  10.3144000   8.3187000  -2.3606000   7.9936000
   8.6127000  -2.2392000   5.5704000   9.1230000   0.8231000   3.6131000
   9.7849000   0.9272000   2.2091000   9.1328000   2.0179000   1.3520000
   9.3270000   3.3725000   1.7013000   8.8381000   4.4135000   0.9012000
   8.1387000   4.1399000  -0.2802000   7.6979000   5.2549000  -1.2036000
   6.3214000   5.8943000  -0.9501000   5.2143000   4.8540000  -0.9665000
   6.2958000   6.6436000   0.3735000   6.0568000   6.9033000  -2.0752000
   7.9183000   2.7968000  -0.6188000   8.4122000   1.7569000   0.1827000
   8.8013000   1.8200000   3.9439000   9.9299000   0.5519000   4.3102000
  10.7955000   1.3389000   2.3677000   9.9001000   3.6268000   2.5928000
   9.0545000   5.4381000   1.1977000   8.4359000   6.0675000  -1.1771000
   7.6847000   4.8806000  -2.2356000   4.2502000   5.3706000  -0.9098000
   5.3315000   4.1957000  -0.0989000   5.2862000   4.2846000  -1.8997000
   6.4023000   5.9268000   1.1918000   7.1181000   7.3662000   0.3809000
   5.3362000   7.1615000   0.4578000   6.8579000   7.6486000  -2.0660000
   6.0441000   6.3633000  -3.0275000   5.0888000   7.3806000  -1.8950000
   7.3967000   2.5342000  -1.5377000   8.2390000   0.7351000  -0.1456000
  10.0334000  -0.4629000   1.5442000  11.0871000  -1.3442000   2.3083000
  12.4766000  -0.8102000   2.1050000  13.1297000  -0.2377000   3.1927000
  14.4900000   0.0198000   3.1223000  15.2232000  -0.3878000   2.0066000
  16.7124000  -0.2852000   1.9448000  17.2891000   1.0720000   1.7225000
  16.9639000   2.1468000   2.7519000  18.8036000   0.9460000   1.6387000
  16.7508000   1.5504000   0.3981000  14.5443000  -0.8772000   0.8931000
  13.1608000  -0.9802000   0.8987000   9.0829000  -1.0047000   1.4589000
  10.3746000  -0.3125000   0.5077000  10.8492000  -1.3153000   3.3787000
  12.5790000  -0.0525000   4.1138000  14.9690000   0.4881000   3.9744000
  17.1002000  -0.9457000   1.1557000  17.1409000  -0.6639000   2.8591000
  17.5049000   3.0620000   2.4903000  15.8900000   2.3471000   2.7422000
  17.2860000   1.7892000   3.7323000  19.1836000   0.5455000   2.5831000
  19.0613000   0.2842000   0.8087000  19.2010000   1.9500000   1.4616000
  16.9682000   0.8085000  -0.3757000  15.6742000   1.7217000   0.4845000
  17.2534000   2.4963000   0.1695000  15.0668000  -1.0958000  -0.0323000
  12.6496000  -1.3139000  -0.0029000  10.9990000  -2.8468000   1.9192000
  12.2754000  -3.8287000   1.8909000  12.1398000  -4.5752000   0.5439000
  10.8933000  -5.1737000   0.2995000  10.5146000  -5.5424000  -0.9879000
  11.3730000  -5.3539000  -2.0730000  10.8747000  -5.5801000  -3.4790000
  11.0523000  -6.9911000  -4.0657000  12.5203000  -7.3710000  -4.1469000
  10.4750000  -6.9837000  -5.4851000  10.2998000  -8.0247000  -3.2460000
  12.6666000  -4.8820000  -1.8267000  13.0589000  -4.5061000  -0.5205000
  10.2183000  -3.3039000   2.5426000  10.5632000  -2.8122000   0.9098000
  13.2189000  -3.2850000   1.8750000  10.1771000  -5.1781000   1.1243000
   9.5129000  -5.8998000  -1.1680000  11.3818000  -4.8869000  -4.1633000
   9.8032000  -5.3472000  -3.5374000  13.0516000  -6.5934000  -4.7035000
  12.6012000  -8.3312000  -4.6655000  12.9204000  -7.4664000  -3.1342000
  11.0204000  -6.2424000  -6.0765000   9.4140000  -6.7243000  -5.4255000
  10.6000000  -7.9818000  -5.9159000  10.7610000  -8.1005000  -2.2578000
  10.3683000  -8.9895000  -3.7584000   9.2546000  -7.7121000  -3.1646000
  13.3666000  -4.7327000  -2.6474000  14.0700000  -4.1079000  -0.3973000
  12.3744000  -4.8779000   3.0654000  12.5536000  -4.2857000   4.4909000
  13.8560000  -3.5698000   4.8024000  15.1087000  -4.0201000   4.3664000
  16.2634000  -3.2578000   4.5589000  16.1952000  -2.0289000   5.2230000
  17.3924000  -1.1028000   5.2353000  18.2304000  -1.0476000   6.4686000
  17.4082000  -0.5308000   7.6295000  19.4099000  -0.0764000   6.2413000
  18.7796000  -2.4197000   6.7610000  14.9708000  -1.6467000   5.7895000
  13.8187000  -2.4088000   5.5829000  13.1944000  -5.5709000   2.8428000
  11.4620000  -5.4879000   3.0639000  11.7751000  -3.5261000   4.4806000
  15.2040000  -4.9913000   3.8858000  17.2056000  -3.6190000   4.1486000
  17.0583000  -0.0803000   5.0297000  18.0807000  -1.3954000   4.4339000
  18.0661000  -0.4374000   8.4821000  16.6176000  -1.2591000   7.8353000
  16.9784000   0.4385000   7.3530000  20.0070000  -0.4429000   5.3977000
  20.0017000  -0.0634000   7.1536000  19.0090000   0.9181000   6.0216000
  17.9403000  -3.0878000   6.9760000  19.4313000  -2.3402000   7.6219000
  19.3345000  -2.7743000   5.8822000  14.8658000  -0.7011000   6.3203000
  12.8726000  -2.0432000   5.9802000  12.0896000  -5.1955000   5.6714000
  13.1054000  -6.1110000   6.4199000  12.4525000  -6.5432000   7.7448000
  11.2971000  -7.3468000   7.8004000  10.7170000  -7.6896000   9.0276000
  11.2562000  -7.2233000  10.2306000  10.6088000  -7.5974000  11.5434000
   9.4071000  -6.7317000  12.0047000   8.2104000  -6.9039000  11.0551000
   8.9157000  -7.2503000  13.3688000   9.7479000  -5.2622000  12.0759000
  12.4154000  -6.4312000  10.1793000  12.9943000  -6.0878000   8.9507000
  11.6929000  -4.5040000   6.4345000  11.2135000  -5.7763000   5.3453000
  13.9953000  -5.5164000   6.6472000  10.8358000  -7.7140000   6.8848000
   9.8343000  -8.3276000   9.0222000  11.3835000  -7.6482000  12.2980000
  10.1623000  -8.5978000  11.4733000   8.4614000  -6.4633000  10.0872000
   7.9919000  -7.9709000  10.9548000   7.3522000  -6.3756000  11.4829000
   8.0761000  -6.6299000  13.6958000   8.6044000  -8.2925000  13.2511000
   9.7368000  -7.1824000  14.0807000  10.6622000  -5.1371000  12.6546000
   8.9179000  -4.7310000  12.5517000   9.8963000  -4.8808000  11.0614000
  12.8864000  -6.0704000  11.0927000  13.8851000  -5.4614000   8.9465000
  13.5395000  -7.3319000   5.5984000  14.9444000  -7.9777000   5.8741000
  14.9745000  -9.3059000   5.1621000  14.0323000 -10.3250000   5.2025000
  14.3150000 -11.5998000   4.6652000  15.5740000 -11.9275000   4.2259000
  15.9893000 -13.2817000   3.7222000  16.8610000 -14.2277000   4.5626000
  17.1224000 -15.4960000   3.7240000  16.1734000 -14.6966000   5.7941000
  18.2004000 -13.6087000   4.9078000  16.3672000 -10.8315000   4.0365000
  16.0280000  -9.5315000   4.3312000  13.5513000  -7.0500000   4.5378000
  12.7479000  -8.0831000   5.6620000  15.6366000  -7.3098000   5.3484000
  13.0551000 -10.1394000   5.6266000  13.5473000 -12.3421000   4.5594000
  15.0805000 -13.8357000   3.4535000  16.5337000 -13.0958000   2.7871000
  17.6422000 -15.1996000   2.8081000  16.1600000 -15.9592000   3.4876000
  17.7421000 -16.1817000   4.3100000  16.1211000 -13.8486000   6.4658000
  15.1799000 -15.0717000   5.5333000  16.7649000 -15.4872000   6.2678000
  18.6789000 -13.2741000   3.9830000  18.8194000 -14.3626000   5.4037000
  18.0326000 -12.7674000   5.5852000  17.3177000 -10.8645000   3.5841000
  16.6947000  -8.7248000   4.0339000  15.5049000  -8.0169000   7.3434000
  16.9237000  -8.5913000   7.8408000  18.1930000  -8.2576000   7.0257000
  19.0695000  -7.2274000   7.4239000  20.1898000  -6.8607000   6.6444000
  20.4745000  -7.5336000   5.4473000  21.5567000  -7.0344000   4.5164000
  22.9750000  -7.6018000   4.7087000  23.0003000  -9.1060000   4.4945000
  23.8879000  -6.9493000   3.6661000  23.5160000  -7.2765000   6.0910000
  19.6879000  -8.6435000   5.1066000  18.5872000  -9.0104000   5.9078000
  14.7335000  -8.4444000   7.9753000  15.5480000  -6.9584000   7.6383000
  17.0632000  -8.0157000   8.7700000  18.9169000  -6.7000000   8.3666000
  20.7590000  -5.9799000   6.9379000  21.6389000  -5.9430000   4.6039000
  21.2708000  -7.2446000   3.4773000  24.0403000  -9.4443000   4.5381000
  22.4239000  -9.5889000   5.2880000  22.5709000  -9.3255000   3.5126000
  23.5055000  -7.1932000   2.6704000  24.8998000  -7.3458000   3.7932000
  23.8795000  -5.8673000   3.8280000  24.5588000  -7.6048000   6.1407000
  23.4510000  -6.1954000   6.2451000  22.9266000  -7.8123000   6.8397000
  19.8569000  -9.1819000   4.1752000  18.0160000  -9.8937000   5.6094000
  17.0365000 -10.0598000   8.3810000  16.0257000 -10.5866000   9.4637000
  14.7585000 -11.1671000   8.8499000  14.8501000 -12.4408000   8.2974000
  13.8076000 -12.9826000   7.5565000  12.6395000 -12.2578000   7.3279000
  11.6471000 -12.7305000   6.2802000  10.6895000 -13.7745000   6.7105000
   9.9249000 -13.2303000   7.8730000   9.7137000 -14.1082000   5.5686000
  11.4190000 -15.0526000   7.0927000  12.4671000 -11.0573000   8.0252000
  13.5181000 -10.5214000   8.7804000  17.0975000 -10.7603000   7.5390000
  18.0474000 -10.1471000   8.8574000  16.5474000 -11.4466000   9.9019000
  15.7749000 -12.9926000   8.4033000  13.9409000 -13.9522000   7.0932000
  12.1612000 -13.1798000   5.4331000  11.0777000 -11.8744000   5.8939000
  10.6111000 -13.0717000   8.7090000   9.4501000 -12.2904000   7.5765000
   9.1658000 -13.9667000   8.1547000  10.2743000 -14.5104000   4.7195000
   9.1900000 -13.1905000   5.2847000   9.0041000 -14.8517000   5.9438000
  12.0604000 -14.8456000   7.9534000  12.0100000 -15.4057000   6.2426000
  10.6655000 -15.7975000   7.3668000  11.5488000 -10.4839000   7.9229000
  13.3601000  -9.5591000   9.2600000  15.7856000  -9.5949000  10.6161000
  15.0687000 -10.1450000  11.8752000  14.4820000  -9.0742000  12.7780000
  13.3134000  -9.3291000  13.5005000  12.7042000  -8.3173000  14.2523000
  13.2382000  -7.0131000  14.3084000  12.4170000  -5.8515000  14.8607000
  12.1923000  -5.6257000  16.3457000  11.7155000  -6.8684000  17.0927000
  13.4576000  -5.0790000  16.9487000  11.1095000  -4.5387000  16.5655000
  14.4797000  -6.7994000  13.6752000  15.0829000  -7.8225000  12.9347000
  15.2262000  -8.7734000  10.1862000  16.7325000  -9.1988000  10.9554000
  14.1988000 -10.7010000  11.4746000  12.8584000 -10.3203000  13.4759000
  11.7847000  -8.5682000  14.7788000  11.4166000  -5.9539000  14.4403000
  12.8087000  -4.9097000  14.4526000  10.8064000  -7.2283000  16.6025000
  12.5020000  -7.6248000  17.0529000  11.4982000  -6.5979000  18.1299000
  13.7277000  -4.1480000  16.4401000  13.2673000  -4.8847000  18.0055000
  14.2424000  -5.8225000  16.8057000  11.4264000  -3.6330000  16.0400000
  10.1710000  -4.9147000  16.1473000  11.0069000  -4.3511000  17.6385000
  15.0244000  -5.8532000  13.7812000  16.0740000  -7.6476000  12.5209000
  15.9310000 -11.1772000  12.6220000  16.7622000 -10.8678000  13.9041000
  17.1389000 -12.2377000  14.3835000  16.6379000 -12.6256000  15.6263000
  17.3645000 -13.5138000  16.3776000  18.4530000 -14.1525000  15.8029000
  19.4541000 -14.8388000  16.7113000  19.0911000 -16.1850000  17.2266000
  17.9101000 -16.1735000  18.2037000  20.2864000 -16.7743000  18.0145000
  18.7937000 -17.0636000  16.0557000  18.6315000 -14.0414000  14.4030000
  18.0275000 -13.0422000  13.6758000  16.5795000 -11.6816000  11.9005000
  15.2067000 -11.9579000  12.9129000  16.1026000 -10.4246000  14.6544000
  15.8195000 -12.0881000  16.1025000  17.1336000 -13.5860000  17.4341000
  19.6860000 -14.1930000  17.5684000  20.3836000 -14.9949000  16.1637000
  17.8216000 -17.1644000  18.6604000  18.1042000 -15.4176000  18.9700000
  16.9968000 -15.9495000  17.6473000  21.1553000 -16.8039000  17.3500000
  20.4805000 -16.1243000  18.8727000  20.0221000 -17.7847000  18.3401000
  18.0597000 -16.6373000  15.3673000  19.7061000 -17.3469000  15.5283000
  18.3645000 -17.9430000  16.5472000  19.3319000 -14.6584000  13.8640000
  18.3359000 -12.8942000  12.6319000  18.0655000  -9.9995000  13.8374000
  19.0437000  -9.7337000  15.1114000  18.3874000  -9.1097000  16.3659000
  17.5379000  -9.8171000  17.2227000  17.0132000  -9.2737000  18.4092000
  17.3564000  -7.9763000  18.8018000  16.7791000  -7.3714000  20.0779000
  15.4857000  -6.5258000  19.8231000  14.4361000  -7.4094000  19.2304000
  15.8888000  -5.2873000  19.0482000  14.9118000  -6.0071000  21.1511000
  18.2338000  -7.2589000  17.9726000  18.7658000  -7.8351000  16.8032000
  18.6966000 -10.3602000  13.0155000  17.7285000  -9.0047000  13.5200000
  19.6509000  -8.9101000  14.7001000  17.3319000 -10.8546000  17.0385000
  16.3550000  -9.8940000  19.0301000  16.5093000  -8.1607000  20.7904000
  17.5119000  -6.7181000  20.5668000  14.7051000  -7.6514000  18.2000000
  14.3453000  -8.3193000  19.8322000  13.4859000  -6.8745000  19.2467000
  16.0872000  -5.5632000  18.0117000  15.0767000  -4.5590000  19.0969000
  16.7820000  -4.8483000  19.5051000  14.7714000  -6.8505000  21.8107000
  13.9537000  -5.4883000  20.9718000  15.6712000  -5.3292000  21.4750000
  18.5018000  -6.2310000  18.2121000  19.5402000  -7.2805000  16.2676000
  20.1698000 -10.7387000  15.6096000  21.0272000 -11.5409000  14.5716000
  21.9546000 -10.5402000  13.9548000  21.8183000 -10.2260000  12.5956000
  22.5908000  -9.2157000  12.0080000  23.5257000  -8.4931000  12.7639000
  24.3033000  -7.3486000  12.1516000  25.6730000  -7.6723000  11.5285000
  25.5386000  -8.6586000  10.3805000  26.2604000  -6.3679000  10.9773000
  26.6357000  -8.2280000  12.5655000  23.6792000  -8.8230000  14.1180000
  22.9071000  -9.8342000  14.7033000  19.7794000 -11.3927000  16.3750000
  20.8486000 -10.1316000  16.2286000  20.3603000 -11.9757000  13.8287000
  21.0819000 -10.7466000  11.9851000  22.4221000  -8.9798000  10.9582000
  23.7010000  -6.8791000  11.3626000  24.4773000  -6.5772000  12.9134000
  24.8146000  -8.2615000   9.6631000  25.2052000  -9.6217000  10.7760000
  26.5183000  -8.7748000   9.9066000  26.3696000  -5.6614000  11.8054000
  25.5751000  -5.9730000  10.2214000  27.2353000  -6.5867000  10.5313000
  26.6884000  -7.5264000  13.4031000  27.6202000  -8.3385000  12.1003000
  26.2754000  -9.2049000  12.8982000  24.3770000  -8.2756000  14.7502000
  23.0374000 -10.0404000  15.7648000  21.8814000 -12.7301000  15.1153000
  22.6149000 -13.6626000  14.0591000  21.7338000 -14.5298000  13.1420000
  21.5186000 -14.1598000  11.8096000  20.7453000 -14.9696000  10.9668000
  20.0073000 -16.0531000  11.4481000  19.0725000 -16.8454000  10.5779000
  17.6602000 -16.3064000  10.2002000  17.7880000 -15.0055000   9.4797000
  16.7548000 -16.1577000  11.4180000  17.0080000 -17.3627000   9.2716000
  20.3674000 -16.5270000  12.7109000  21.2518000 -15.7970000  13.5262000
  21.2445000 -13.3376000  15.7416000  22.6343000 -12.3290000  15.8027000
  23.1900000 -13.0248000  13.3819000  22.0588000 -13.3120000  11.3925000
  20.8697000 -14.8626000   9.8980000  19.5913000 -16.9856000   9.6452000
  18.9112000 -17.8047000  11.0469000  18.4857000 -15.1211000   8.6448000
  16.8014000 -14.7395000   9.0978000  18.1314000 -14.2331000  10.1730000
  16.7471000 -17.1030000  11.9685000  15.7441000 -15.9061000  11.0817000
  17.1466000 -15.3485000  12.0397000  16.0095000 -17.0161000   8.9887000
  16.9432000 -18.3098000   9.8154000  17.6399000 -17.4697000   8.3849000
  20.0030000 -17.4944000  13.0638000  21.5323000 -16.2321000  14.4831000
  23.6228000 -14.6133000  14.7581000  24.8487000 -13.9624000  15.3990000
  25.7616000 -15.0527000  15.9295000  26.6563000 -15.7538000  15.1093000
  27.5805000 -16.6494000  15.6659000  27.5955000 -16.8980000  17.0469000
  28.6334000 -17.8118000  17.6595000  28.2740000 -19.3032000  17.7934000
  28.0083000 -19.9310000  16.4349000  27.0612000 -19.5008000  18.6884000
  29.4674000 -20.0200000  18.4322000  26.6535000 -16.2391000  17.8513000
  25.7320000 -15.3470000  17.2941000  23.1029000 -15.1872000  15.5378000
  23.9774000 -15.3511000  14.0228000  25.5842000 -13.0158000  14.4576000
  24.5225000 -13.3558000  16.2533000  26.6858000 -15.5674000  14.0357000
  28.3049000 -17.1246000  15.0061000  29.5582000 -17.7619000  17.0697000
  28.8847000 -17.4559000  18.6674000  28.8718000 -19.7438000  15.7899000
  27.8641000 -21.0071000  16.5729000  27.1025000 -19.4909000  16.0098000
  26.9129000 -20.5747000  18.8386000  26.1826000 -19.0743000  18.1973000
  27.2507000 -19.0065000  19.6457000  30.3376000 -19.8891000  17.7821000
  29.2227000 -21.0818000  18.5322000  29.6508000 -19.5769000  19.4155000
  26.6406000 -16.3866000  18.9303000  25.0276000 -14.8345000  17.9462000
  -1.3818000   3.0258000  -4.0123000  -2.8333000   3.6956000  -3.2348000
  -1.2372000   4.2965000  -2.7879000  26.5235000 -12.7034000  14.9116000
  25.8023000 -13.4734000  13.4871000  24.9914000 -12.1177000  14.2795000
