%VERSION  VERSION_STAMP = V0001.000  DATE = 08/19/26  15:47:44                  
%FLAG TITLE                                                                     
%FORMAT(20a4)                                                                   
POL                                                                             
%FLAG POINTERS                                                                  
%FORMAT(10I8)                                                                   
     628       6     366     281     792     420    1470     558       0       0
    3730       1     281     420     558       7      13      11       6       0
       0       0       0       0       0       0       0       0     628       0
       0
%FLAG ATOM_NAME                                                                 
%FORMAT(20a4)                                                                   
C1  C2  C3  C4  C5  C6  C7  N1  C8  C9  C10 C11 C12 C13 H1  H2  H3  H4  H5  H6  
H7  H8  H9  H10 H11 H12 H13 H14 H15 H16 H17 H18 C14 C15 C16 C17 C18 C19 C20 N2  
C21 C22 C23 C24 C25 H19 H20 H21 H22 H23 H24 H25 H26 H27 H28 H29 H30 H31 H32 H33 
H34 H35 H36 C26 C27 C28 C29 C30 C31 C32 N3  C33 C34 C35 C36 C37 H37 H38 H39 H40 
H41 H42 H43 H44 H45 H46 H47 H48 H49 H50 H51 H52 H53 H54 C38 C39 C40 C41 C42 C43 
C44 N4  C45 C46 C47 C48 C49 H55 H56 H57 H58 H59 H60 H61 H62 H63 H64 H65 H66 H67 
H68 H69 H70 H71 H72 C50 C51 C52 C53 C54 C55 C56 N5  C57 C58 C59 C60 C61 H73 H74 
H75 H76 H77 H78 H79 H80 H81 H82 H83 H84 H85 H86 H87 H88 H89 H90 C62 C63 C64 C65 
C66 C67 C68 N6  C69 C70 C71 C72 C73 H91 H92 H93 H94 H95 H96 H97 H98 H99 H100H101
H102H103H104H105H106H107H108C74 C75 C76 C77 C78 C79 C80 N7  C81 C82 C83 C84 C85 
H109H110H111H112H113H114H115H116H117H118H119H120H121H122H123H124H125H126C86 C87 
C88 C89 C90 C91 C92 N8  C93 C94 C95 C96 C97 H127H128H129H130H131H132H133H134H135
H136H137H138H139H140H141H142H143H144C98 C99 C100C101C102C103C104N9  C105C106C107
C108C109H145H146H147H148H149H150H151H152H153H154H155H156H157H158H159H160H161H162
C110C111C112C113C114C115C116N10 C117C118C119C120C121H163H164H165H166H167H168H169
H170H171H172H173H174H175H176H177H178H179H180C122C123C124C125C126C127C128N11 C129
C130C131C132C133H181H182H183H184H185H186H187H188H189H190H191H192H193H194H195H196
H197H198C134C135C136C137C138C139C140N12 C141C142C143C144C145H199H200H201H202H203
H204H205H206H207H208H209H210H211H212H213H214H215H216C146C147C148C149C150C151C152
N13 C153C154C155C156C157H217H218H219H220H221H222H223H224H225H226H227H228H229H230
H231H232H233H234C158C159C160C161C162C163C164N14 C165C166C167C168C169H235H236H237
H238H239H240H241H242H243H244H245H246H247H248H249H250H251H252C170C171C172C173C174
C175C176N15 C177C178C179C180C181H253H254H255H256H257H258H259H260H261H262H263H264
H265H266H267H268H269H270C182C183C184C185C186C187C188N16 C189C190C191C192C193H271
H272H273H274H275H276H277H278H279H280H281H282H283H284H285H286H287H288C194C195C196
C197C198C199C200N17 C201C202C203C204C205H289H290H291H292H293H294H295H296H297H298
H299H300H301H302H303H304H305H306C206C207C208C209C210C211C212N18 C213C214C215C216
C217H307H308H309H310H311H312H313H314H315H316H317H318H319H320H321H322H323H324C218
C219C220C221C222C223C224N19 C225C226C227C228C229H325H326H327H328H329H330H331H332
H333H334H335H336H337H338H339H340H341H342C230C231C232C233C234C235C236N20 C237C238
C239C240C241H343H344C242H345H346H347H348H349H350H351H352H353H354H355H356H357H358
H359H360H361H362H363H364H365H366
%FLAG CHARGE                                                                    
%FORMAT(5E16.8)                                                                 
 -1.31413761E+00 -6.58134809E-01 -2.00755079E-01 -2.19063024E+00 -1.78973964E+00
 -3.42610218E+00  3.43277154E+00 -1.10572916E+01  1.64698614E+00  1.64698614E+00
  1.64698614E+00 -1.78973964E+00 -2.19063024E+00 -1.72778382E+00  8.56138321E-01
  8.56138321E-01  1.27525122E+00  2.92983606E+00  2.50161201E+00  1.84014252E+00
  1.84014252E+00  1.87254177E+00  1.87254177E+00  1.87254177E+00  1.87254177E+00
  1.87254177E+00  1.87254177E+00  1.87254177E+00  1.87254177E+00  1.87254177E+00
  2.50161201E+00  2.92983606E+00 -1.31413761E+00 -6.58134809E-01 -2.00755079E-01
 -2.19063024E+00 -1.78973964E+00 -3.42610218E+00  3.43277154E+00 -1.10572916E+01
  1.64698614E+00  1.64698614E+00  1.64698614E+00 -1.78973964E+00 -2.19063024E+00
  8.56138321E-01  8.56138321E-01  1.27525122E+00  2.92983606E+00  2.50161201E+00
  1.84014252E+00  1.84014252E+00  1.87254177E+00  1.87254177E+00  1.87254177E+00
  1.87254177E+00  1.87254177E+00  1.87254177E+00  1.87254177E+00  1.87254177E+00
  1.87254177E+00  2.50161201E+00  2.92983606E+00 -1.31413761E+00 -6.58134809E-01
 -2.00755079E-01 -2.19063024E+00 -1.78973964E+00 -3.42610218E+00  3.43277154E+00
 -1.10572916E+01  1.64698614E+00  1.64698614E+00  1.64698614E+00 -1.78973964E+00
 -2.19063024E+00  8.56138321E-01  8.56138321E-01  1.27525122E+00  2.92983606E+00
  2.50161201E+00  1.84014252E+00  1.84014252E+00  1.87254177E+00  1.87254177E+00
  1.87254177E+00  1.87254177E+00  1.87254177E+00  1.87254177E+00  1.87254177E+00
  1.87254177E+00  1.87254177E+00  2.50161201E+00  2.92983606E+00 -1.31413761E+00
 -6.58134809E-01 -2.00755079E-01 -2.19063024E+00 -1.78973964E+00 -3.42610218E+00
  3.43277154E+00 -1.10572916E+01  1.64698614E+00  1.64698614E+00  1.64698614E+00
 -1.78973964E+00 -2.19063024E+00  8.56138321E-01  8.56138321E-01  1.27525122E+00
  2.92983606E+00  2.50161201E+00  1.84014252E+00  1.84014252E+00  1.87254177E+00
  1.87254177E+00  1.87254177E+00  1.87254177E+00  1.87254177E+00  1.87254177E+00
  1.87254177E+00  1.87254177E+00  1.87254177E+00  2.50161201E+00  2.92983606E+00
 -1.31413761E+00 -6.58134809E-01 -2.00755079E-01 -2.19063024E+00 -1.78973964E+00
 -3.42610218E+00  3.43277154E+00 -1.10572916E+01  1.64698614E+00  1.64698614E+00
  1.64698614E+00 -1.78973964E+00 -2.19063024E+00  8.56138321E-01  8.56138321E-01
  1.27525122E+00  2.92983606E+00  2.50161201E+00  1.84014252E+00  1.84014252E+00
  1.87254177E+00  1.87254177E+00  1.87254177E+00  1.87254177E+00  1.87254177E+00
  1.87254177E+00  1.87254177E+00  1.87254177E+00  1.87254177E+00  2.50161201E+00
  2.92983606E+00 -1.31413761E+00 -6.58134809E-01 -2.00755079E-01 -2.19063024E+00
 -1.78973964E+00 -3.42610218E+00  3.43277154E+00 -1.10572916E+01  1.64698614E+00
  1.64698614E+00  1.64698614E+00 -1.78973964E+00 -2.19063024E+00  8.56138321E-01
  8.56138321E-01  1.27525122E+00  2.92983606E+00  2.50161201E+00  1.84014252E+00
  1.84014252E+00  1.87254177E+00  1.87254177E+00  1.87254177E+00  1.87254177E+00
  1.87254177E+00  1.87254177E+00  1.87254177E+00  1.87254177E+00  1.87254177E+00
  2.50161201E+00  2.92983606E+00 -1.31413761E+00 -6.58134809E-01 -2.00755079E-01
 -2.19063024E+00 -1.78973964E+00 -3.42610218E+00  3.43277154E+00 -1.10572916E+01
  1.64698614E+00  1.64698614E+00  1.64698614E+00 -1.78973964E+00 -2.19063024E+00
  8.56138321E-01  8.56138321E-01  1.27525122E+00  2.92983606E+00  2.50161201E+00
  1.84014252E+00  1.84014252E+00  1.87254177E+00  1.87254177E+00  1.87254177E+00
  1.87254177E+00  1.87254177E+00  1.87254177E+00  1.87254177E+00  1.87254177E+00
  1.87254177E+00  2.50161201E+00  2.92983606E+00 -1.31413761E+00 -6.58134809E-01
 -2.00755079E-01 -2.19063024E+00 -1.78973964E+00 -3.42610218E+00  3.43277154E+00
 -1.10572916E+01  1.64698614E+00  1.64698614E+00  1.64698614E+00 -1.78973964E+00
 -2.19063024E+00  8.56138321E-01  8.56138321E-01  1.27525122E+00  2.92983606E+00
  2.50161201E+00  1.84014252E+00  1.84014252E+00  1.87254177E+00  1.87254177E+00
  1.87254177E+00  1.87254177E+00  1.87254177E+00  1.87254177E+00  1.87254177E+00
  1.87254177E+00  1.87254177E+00  2.50161201E+00  2.92983606E+00 -1.31413761E+00
 -6.58134809E-01 -2.00755079E-01 -2.19063024E+00 -1.78973964E+00 -3.42610218E+00
  3.43277154E+00 -1.10572916E+01  1.64698614E+00  1.64698614E+00  1.64698614E+00
 -1.78973964E+00 -2.19063024E+00  8.56138321E-01  8.56138321E-01  1.27525122E+00
  2.92983606E+00  2.50161201E+00  1.84014252E+00  1.84014252E+00  1.87254177E+00
  1.87254177E+00  1.87254177E+00  1.87254177E+00  1.87254177E+00  1.87254177E+00
  1.87254177E+00  1.87254177E+00  1.87254177E+00  2.50161201E+00  2.92983606E+00
 -1.31413761E+00 -6.58134809E-01 -2.00755079E-01 -2.19063024E+00 -1.78973964E+00
 -3.42610218E+00  3.43277154E+00 -1.10572916E+01  1.64698614E+00  1.64698614E+00
  1.64698614E+00 -1.78973964E+00 -2.19063024E+00  8.56138321E-01  8.56138321E-01
  1.27525122E+00  2.92983606E+00  2.50161201E+00  1.84014252E+00  1.84014252E+00
  1.87254177E+00  1.87254177E+00  1.87254177E+00  1.87254177E+00  1.87254177E+00
  1.87254177E+00  1.87254177E+00  1.87254177E+00  1.87254177E+00  2.50161201E+00
  2.92983606E+00 -1.31413761E+00 -6.58134809E-01 -2.00755079E-01 -2.19063024E+00
 -1.78973964E+00 -3.42610218E+00  3.43277154E+00 -1.10572916E+01  1.64698614E+00
  1.64698614E+00  1.64698614E+00 -1.78973964E+00 -2.19063024E+00  8.56138321E-01
  8.56138321E-01  1.27525122E+00  2.92983606E+00  2.50161201E+00  1.84014252E+00
  1.84014252E+00  1.87254177E+00  1.87254177E+00  1.87254177E+00  1.87254177E+00
  1.87254177E+00  1.87254177E+00  1.87254177E+00  1.87254177E+00  1.87254177E+00
  2.50161201E+00  2.92983606E+00 -1.31413761E+00 -6.58134809E-01 -2.00755079E-01
 -2.19063024E+00 -1.78973964E+00 -3.42610218E+00  3.43277154E+00 -1.10572916E+01
  1.64698614E+00  1.64698614E+00  1.64698614E+00 -1.78973964E+00 -2.19063024E+00
  8.56138321E-01  8.56138321E-01  1.27525122E+00  2.92983606E+00  2.50161201E+00
  1.84014252E+00  1.84014252E+00  1.87254177E+00  1.87254177E+00  1.87254177E+00
  1.87254177E+00  1.87254177E+00  1.87254177E+00  1.87254177E+00  1.87254177E+00
  1.87254177E+00  2.50161201E+00  2.92983606E+00 -1.31413761E+00 -6.58134809E-01
 -2.00755079E-01 -2.19063024E+00 -1.78973964E+00 -3.42610218E+00  3.43277154E+00
 -1.10572916E+01  1.64698614E+00  1.64698614E+00  1.64698614E+00 -1.78973964E+00
 -2.19063024E+00  8.56138321E-01  8.56138321E-01  1.27525122E+00  2.92983606E+00
  2.50161201E+00  1.84014252E+00  1.84014252E+00  1.87254177E+00  1.87254177E+00
  1.87254177E+00  1.87254177E+00  1.87254177E+00  1.87254177E+00  1.87254177E+00
  1.87254177E+00  1.87254177E+00  2.50161201E+00  2.92983606E+00 -1.31413761E+00
 -6.58134809E-01 -2.00755079E-01 -2.19063024E+00 -1.78973964E+00 -3.42610218E+00
  3.43277154E+00 -1.10572916E+01  1.64698614E+00  1.64698614E+00  1.64698614E+00
 -1.78973964E+00 -2.19063024E+00  8.56138321E-01  8.56138321E-01  1.27525122E+00
  2.92983606E+00  2.50161201E+00  1.84014252E+00  1.84014252E+00  1.87254177E+00
  1.87254177E+00  1.87254177E+00  1.87254177E+00  1.87254177E+00  1.87254177E+00
  1.87254177E+00  1.87254177E+00  1.87254177E+00  2.50161201E+00  2.92983606E+00
 -1.31413761E+00 -6.58134809E-01 -2.00755079E-01 -2.19063024E+00 -1.78973964E+00
 -3.42610218E+00  3.43277154E+00 -1.10572916E+01  1.64698614E+00  1.64698614E+00
  1.64698614E+00 -1.78973964E+00 -2.19063024E+00  8.56138321E-01  8.56138321E-01
  1.27525122E+00  2.92983606E+00  2.50161201E+00  1.84014252E+00  1.84014252E+00
  1.87254177E+00  1.87254177E+00  1.87254177E+00  1.87254177E+00  1.87254177E+00
  1.87254177E+00  1.87254177E+00  1.87254177E+00  1.87254177E+00  2.50161201E+00
  2.92983606E+00 -1.31413761E+00 -6.58134809E-01 -2.00755079E-01 -2.19063024E+00
 -1.78973964E+00 -3.42610218E+00  3.43277154E+00 -1.10572916E+01  1.64698614E+00
  1.64698614E+00  1.64698614E+00 -1.78973964E+00 -2.19063024E+00  8.56138321E-01
  8.56138321E-01  1.27525122E+00  2.92983606E+00  2.50161201E+00  1.84014252E+00
  1.84014252E+00  1.87254177E+00  1.87254177E+00  1.87254177E+00  1.87254177E+00
  1.87254177E+00  1.87254177E+00  1.87254177E+00  1.87254177E+00  1.87254177E+00
  2.50161201E+00  2.92983606E+00 -1.31413761E+00 -6.58134809E-01 -2.00755079E-01
 -2.19063024E+00 -1.78973964E+00 -3.42610218E+00  3.43277154E+00 -1.10572916E+01
  1.64698614E+00  1.64698614E+00  1.64698614E+00 -1.78973964E+00 -2.19063024E+00
  8.56138321E-01  8.56138321E-01  1.27525122E+00  2.92983606E+00  2.50161201E+00
  1.84014252E+00  1.84014252E+00  1.87254177E+00  1.87254177E+00  1.87254177E+00
  1.87254177E+00  1.87254177E+00  1.87254177E+00  1.87254177E+00  1.87254177E+00
  1.87254177E+00  2.50161201E+00  2.92983606E+00 -1.31413761E+00 -6.58134809E-01
 -2.00755079E-01 -2.19063024E+00 -1.78973964E+00 -3.42610218E+00  3.43277154E+00
 -1.10572916E+01  1.64698614E+00  1.64698614E+00  1.64698614E+00 -1.78973964E+00
 -2.19063024E+00  8.56138321E-01  8.56138321E-01  1.27525122E+00  2.92983606E+00
  2.50161201E+00  1.84014252E+00  1.84014252E+00  1.87254177E+00  1.87254177E+00
  1.87254177E+00  1.87254177E+00  1.87254177E+00  1.87254177E+00  1.87254177E+00
  1.87254177E+00  1.87254177E+00  2.50161201E+00  2.92983606E+00 -1.31413761E+00
 -6.58134809E-01 -2.00755079E-01 -2.19063024E+00 -1.78973964E+00 -3.42610218E+00
  3.43277154E+00 -1.10572916E+01  1.64698614E+00  1.64698614E+00  1.64698614E+00
 -1.78973964E+00 -2.19063024E+00  8.56138321E-01  8.56138321E-01  1.27525122E+00
  2.92983606E+00  2.50161201E+00  1.84014252E+00  1.84014252E+00  1.87254177E+00
  1.87254177E+00  1.87254177E+00  1.87254177E+00  1.87254177E+00  1.87254177E+00
  1.87254177E+00  1.87254177E+00  1.87254177E+00  2.50161201E+00  2.92983606E+00
 -1.31413761E+00 -6.58134809E-01 -2.00755079E-01 -2.19063024E+00 -1.78973964E+00
 -3.42610218E+00  3.43277154E+00 -1.10572916E+01  1.64698614E+00  1.64698614E+00
  1.64698614E+00 -1.78973964E+00 -2.19063024E+00  8.56138321E-01  8.56138321E-01
 -1.61845002E+00  1.27525122E+00  2.92983606E+00  2.50161201E+00  1.84014252E+00
  1.84014252E+00  1.87254177E+00  1.87254177E+00  1.87254177E+00  1.87254177E+00
  1.87254177E+00  1.87254177E+00  1.87254177E+00  1.87254177E+00  1.87254177E+00
  2.50161201E+00  2.92983606E+00  8.31847995E-01  8.31847995E-01  8.31847995E-01
  8.31847995E-01  8.31847995E-01  8.31847995E-01
%FLAG ATOMIC_NUMBER                                                             
%FORMAT(10I8)                                                                   
       6       6       6       6       6       6       6       7       6       6
       6       6       6       6       1       1       1       1       1       1
       1       1       1       1       1       1       1       1       1       1
       1       1       6       6       6       6       6       6       6       7
       6       6       6       6       6       1       1       1       1       1
       1       1       1       1       1       1       1       1       1       1
       1       1       1       6       6       6       6       6       6       6
       7       6       6       6       6       6       1       1       1       1
       1       1       1       1       1       1       1       1       1       1
       1       1       1       1       6       6       6       6       6       6
       6       7       6       6       6       6       6       1       1       1
       1       1       1       1       1       1       1       1       1       1
       1       1       1       1       1       6       6       6       6       6
       6       6       7       6       6       6       6       6       1       1
       1       1       1       1       1       1       1       1       1       1
       1       1       1       1       1       1       6       6       6       6
       6       6       6       7       6       6       6       6       6       1
       1       1       1       1       1       1       1       1       1       1
       1       1       1       1       1       1       1       6       6       6
       6       6       6       6       7       6       6       6       6       6
       1       1       1       1       1       1       1       1       1       1
       1       1       1       1       1       1       1       1       6       6
       6       6       6       6       6       7       6       6       6       6
       6       1       1       1       1       1       1       1       1       1
       1       1       1       1       1       1       1       1       1       6
       6       6       6       6       6       6       7       6       6       6
       6       6       1       1       1       1       1       1       1       1
       1       1       1       1       1       1       1       1       1       1
       6       6       6       6       6       6       6       7       6       6
       6       6       6       1       1       1       1       1       1       1
       1       1       1       1       1       1       1       1       1       1
       1       6       6       6       6       6       6       6       7       6
       6       6       6       6       1       1       1       1       1       1
       1       1       1       1       1       1       1       1       1       1
       1       1       6       6       6       6       6       6       6       7
       6       6       6       6       6       1       1       1       1       1
       1       1       1       1       1       1       1       1       1       1
       1       1       1       6       6       6       6       6       6       6
       7       6       6       6       6       6       1       1       1       1
       1       1       1       1       1       1       1       1       1       1
       1       1       1       1       6       6       6       6       6       6
       6       7       6       6       6       6       6       1       1       1
       1       1       1       1       1       1       1       1       1       1
       1       1       1       1       1       6       6       6       6       6
       6       6       7       6       6       6       6       6       1       1
       1       1       1       1       1       1       1       1       1       1
       1       1       1       1       1       1       6       6       6       6
       6       6       6       7       6       6       6       6       6       1
       1       1       1       1       1       1       1       1       1       1
       1       1       1       1       1       1       1       6       6       6
       6       6       6       6       7       6       6       6       6       6
       1       1       1       1       1       1       1       1       1       1
       1       1       1       1       1       1       1       1       6       6
       6       6       6       6       6       7       6       6       6       6
       6       1       1       1       1       1       1       1       1       1
       1       1       1       1       1       1       1       1       1       6
       6       6       6       6       6       6       7       6       6       6
       6       6       1       1       1       1       1       1       1       1
       1       1       1       1       1       1       1       1       1       1
       6       6       6       6       6       6       6       7       6       6
       6       6       6       1       1       6       1       1       1       1
       1       1       1       1       1       1       1       1       1       1
       1       1       1       1       1       1       1       1
%FLAG MASS                                                                      
%FORMAT(5E16.8)                                                                 
  1.20100000E+01  1.20100000E+01  1.20100000E+01  1.20100000E+01  1.20100000E+01
  1.20100000E+01  1.20100000E+01  1.40100000E+01  1.20100000E+01  1.20100000E+01
  1.20100000E+01  1.20100000E+01  1.20100000E+01  1.20100000E+01  1.00800000E+00
  1.00800000E+00  1.00800000E+00  1.00800000E+00  1.00800000E+00  1.00800000E+00
  1.00800000E+00  1.00800000E+00  1.00800000E+00  1.00800000E+00  1.00800000E+00
  1.00800000E+00  1.00800000E+00  1.00800000E+00  1.00800000E+00  1.00800000E+00
  1.00800000E+00  1.00800000E+00  1.20100000E+01  1.20100000E+01  1.20100000E+01
  1.20100000E+01  1.20100000E+01  1.20100000E+01  1.20100000E+01  1.40100000E+01
  1.20100000E+01  1.20100000E+01  1.20100000E+01  1.20100000E+01  1.20100000E+01
  1.00800000E+00  1.00800000E+00  1.00800000E+00  1.00800000E+00  1.00800000E+00
  1.00800000E+00  1.00800000E+00  1.00800000E+00  1.00800000E+00  1.00800000E+00
  1.00800000E+00  1.00800000E+00  1.00800000E+00  1.00800000E+00  1.00800000E+00
  1.00800000E+00  1.00800000E+00  1.00800000E+00  1.20100000E+01  1.20100000E+01
  1.20100000E+01  1.20100000E+01  1.20100000E+01  1.20100000E+01  1.20100000E+01
  1.40100000E+01  1.20100000E+01  1.20100000E+01  1.20100000E+01  1.20100000E+01
  1.20100000E+01  1.00800000E+00  1.00800000E+00  1.00800000E+00  1.00800000E+00
  1.00800000E+00  1.00800000E+00  1.00800000E+00  1.00800000E+00  1.00800000E+00
  1.00800000E+00  1.00800000E+00  1.00800000E+00  1.00800000E+00  1.00800000E+00
  1.00800000E+00  1.00800000E+00  1.00800000E+00  1.00800000E+00  1.20100000E+01
  1.20100000E+01  1.20100000E+01  1.20100000E+01  1.20100000E+01  1.20100000E+01
  1.20100000E+01  1.40100000E+01  1.20100000E+01  1.20100000E+01  1.20100000E+01
  1.20100000E+01  1.20100000E+01  1.00800000E+00  1.00800000E+00  1.00800000E+00
  1.00800000E+00  1.00800000E+00  1.00800000E+00  1.00800000E+00  1.00800000E+00
  1.00800000E+00  1.00800000E+00  1.00800000E+00  1.00800000E+00  1.00800000E+00
  1.00800000E+00  1.00800000E+00  1.00800000E+00  1.00800000E+00  1.00800000E+00
  1.20100000E+01  1.20100000E+01  1.20100000E+01  1.20100000E+01  1.20100000E+01
  1.20100000E+01  1.20100000E+01  1.40100000E+01  1.20100000E+01  1.20100000E+01
  1.20100000E+01  1.20100000E+01  1.20100000E+01  1.00800000E+00  1.00800000E+00
  1.00800000E+00  1.00800000E+00  1.00800000E+00  1.00800000E+00  1.00800000E+00
  1.00800000E+00  1.00800000E+00  1.00800000E+00  1.00800000E+00  1.00800000E+00
  1.00800000E+00  1.00800000E+00  1.00800000E+00  1.00800000E+00  1.00800000E+00
  1.00800000E+00  1.20100000E+01  1.20100000E+01  1.20100000E+01  1.20100000E+01
  1.20100000E+01  1.20100000E+01  1.20100000E+01  1.40100000E+01  1.20100000E+01
  1.20100000E+01  1.20100000E+01  1.20100000E+01  1.20100000E+01  1.00800000E+00
  1.00800000E+00  1.00800000E+00  1.00800000E+00  1.00800000E+00  1.00800000E+00
  1.00800000E+00  1.00800000E+00  1.00800000E+00  1.00800000E+00  1.00800000E+00
  1.00800000E+00  1.00800000E+00  1.00800000E+00  1.00800000E+00  1.00800000E+00
  1.00800000E+00  1.00800000E+00  1.20100000E+01  1.20100000E+01  1.20100000E+01
  1.20100000E+01  1.20100000E+01  1.20100000E+01  1.20100000E+01  1.40100000E+01
  1.20100000E+01  1.20100000E+01  1.20100000E+01  1.20100000E+01  1.20100000E+01
  1.00800000E+00  1.00800000E+00  1.00800000E+00  1.00800000E+00  1.00800000E+00
  1.00800000E+00  1.00800000E+00  1.00800000E+00  1.00800000E+00  1.00800000E+00
  1.00800000E+00  1.00800000E+00  1.00800000E+00  1.00800000E+00  1.00800000E+00
  1.00800000E+00  1.00800000E+00  1.00800000E+00  1.20100000E+01  1.20100000E+01
  1.20100000E+01  1.20100000E+01  1.20100000E+01  1.20100000E+01  1.20100000E+01
  1.40100000E+01  1.20100000E+01  1.20100000E+01  1.20100000E+01  1.20100000E+01
  1.20100000E+01  1.00800000E+00  1.00800000E+00  1.00800000E+00  1.00800000E+00
  1.00800000E+00  1.00800000E+00  1.00800000E+00  1.00800000E+00  1.00800000E+00
  1.00800000E+00  1.00800000E+00  1.00800000E+00  1.00800000E+00  1.00800000E+00
  1.00800000E+00  1.00800000E+00  1.00800000E+00  1.00800000E+00  1.20100000E+01
  1.20100000E+01  1.20100000E+01  1.20100000E+01  1.20100000E+01  1.20100000E+01
  1.20100000E+01  1.40100000E+01  1.20100000E+01  1.20100000E+01  1.20100000E+01
  1.20100000E+01  1.20100000E+01  1.00800000E+00  1.00800000E+00  1.00800000E+00
  1.00800000E+00  1.00800000E+00  1.00800000E+00  1.00800000E+00  1.00800000E+00
  1.00800000E+00  1.00800000E+00  1.00800000E+00  1.00800000E+00  1.00800000E+00
  1.00800000E+00  1.00800000E+00  1.00800000E+00  1.00800000E+00  1.00800000E+00
  1.20100000E+01  1.20100000E+01  1.20100000E+01  1.20100000E+01  1.20100000E+01
  1.20100000E+01  1.20100000E+01  1.40100000E+01  1.20100000E+01  1.20100000E+01
  1.20100000E+01  1.20100000E+01  1.20100000E+01  1.00800000E+00  1.00800000E+00
  1.00800000E+00  1.00800000E+00  1.00800000E+00  1.00800000E+00  1.00800000E+00
  1.00800000E+00  1.00800000E+00  1.00800000E+00  1.00800000E+00  1.00800000E+00
  1.00800000E+00  1.00800000E+00  1.00800000E+00  1.00800000E+00  1.00800000E+00
  1.00800000E+00  1.20100000E+01  1.20100000E+01  1.20100000E+01  1.20100000E+01
  1.20100000E+01  1.20100000E+01  1.20100000E+01  1.40100000E+01  1.20100000E+01
  1.20100000E+01  1.20100000E+01  1.20100000E+01  1.20100000E+01  1.00800000E+00
  1.00800000E+00  1.00800000E+00  1.00800000E+00  1.00800000E+00  1.00800000E+00
  1.00800000E+00  1.00800000E+00  1.00800000E+00  1.00800000E+00  1.00800000E+00
  1.00800000E+00  1.00800000E+00  1.00800000E+00  1.00800000E+00  1.00800000E+00
  1.00800000E+00  1.00800000E+00  1.20100000E+01  1.20100000E+01  1.20100000E+01
  1.20100000E+01  1.20100000E+01  1.20100000E+01  1.20100000E+01  1.40100000E+01
  1.20100000E+01  1.20100000E+01  1.20100000E+01  1.20100000E+01  1.20100000E+01
  1.00800000E+00  1.00800000E+00  1.00800000E+00  1.00800000E+00  1.00800000E+00
  1.00800000E+00  1.00800000E+00  1.00800000E+00  1.00800000E+00  1.00800000E+00
  1.00800000E+00  1.00800000E+00  1.00800000E+00  1.00800000E+00  1.00800000E+00
  1.00800000E+00  1.00800000E+00  1.00800000E+00  1.20100000E+01  1.20100000E+01
  1.20100000E+01  1.20100000E+01  1.20100000E+01  1.20100000E+01  1.20100000E+01
  1.40100000E+01  1.20100000E+01  1.20100000E+01  1.20100000E+01  1.20100000E+01
  1.20100000E+01  1.00800000E+00  1.00800000E+00  1.00800000E+00  1.00800000E+00
  1.00800000E+00  1.00800000E+00  1.00800000E+00  1.00800000E+00  1.00800000E+00
  1.00800000E+00  1.00800000E+00  1.00800000E+00  1.00800000E+00  1.00800000E+00
  1.00800000E+00  1.00800000E+00  1.00800000E+00  1.00800000E+00  1.20100000E+01
  1.20100000E+01  1.20100000E+01  1.20100000E+01  1.20100000E+01  1.20100000E+01
  1.20100000E+01  1.40100000E+01  1.20100000E+01  1.20100000E+01  1.20100000E+01
  1.20100000E+01  1.20100000E+01  1.00800000E+00  1.00800000E+00  1.00800000E+00
  1.00800000E+00  1.00800000E+00  1.00800000E+00  1.00800000E+00  1.00800000E+00
  1.00800000E+00  1.00800000E+00  1.00800000E+00  1.00800000E+00  1.00800000E+00
  1.00800000E+00  1.00800000E+00  1.00800000E+00  1.00800000E+00  1.00800000E+00
  1.20100000E+01  1.20100000E+01  1.20100000E+01  1.20100000E+01  1.20100000E+01
  1.20100000E+01  1.20100000E+01  1.40100000E+01  1.20100000E+01  1.20100000E+01
  1.20100000E+01  1.20100000E+01  1.20100000E+01  1.00800000E+00  1.00800000E+00
  1.00800000E+00  1.00800000E+00  1.00800000E+00  1.00800000E+00  1.00800000E+00
  1.00800000E+00  1.00800000E+00  1.00800000E+00  1.00800000E+00  1.00800000E+00
  1.00800000E+00  1.00800000E+00  1.00800000E+00  1.00800000E+00  1.00800000E+00
  1.00800000E+00  1.20100000E+01  1.20100000E+01  1.20100000E+01  1.20100000E+01
  1.20100000E+01  1.20100000E+01  1.20100000E+01  1.40100000E+01  1.20100000E+01
  1.20100000E+01  1.20100000E+01  1.20100000E+01  1.20100000E+01  1.00800000E+00
  1.00800000E+00  1.00800000E+00  1.00800000E+00  1.00800000E+00  1.00800000E+00
  1.00800000E+00  1.00800000E+00  1.00800000E+00  1.00800000E+00  1.00800000E+00
  1.00800000E+00  1.00800000E+00  1.00800000E+00  1.00800000E+00  1.00800000E+00
  1.00800000E+00  1.00800000E+00  1.20100000E+01  1.20100000E+01  1.20100000E+01
  1.20100000E+01  1.20100000E+01  1.20100000E+01  1.20100000E+01  1.40100000E+01
  1.20100000E+01  1.20100000E+01  1.20100000E+01  1.20100000E+01  1.20100000E+01
  1.00800000E+00  1.00800000E+00  1.00800000E+00  1.00800000E+00  1.00800000E+00
  1.00800000E+00  1.00800000E+00  1.00800000E+00  1.00800000E+00  1.00800000E+00
  1.00800000E+00  1.00800000E+00  1.00800000E+00  1.00800000E+00  1.00800000E+00
  1.00800000E+00  1.00800000E+00  1.00800000E+00  1.20100000E+01  1.20100000E+01
  1.20100000E+01  1.20100000E+01  1.20100000E+01  1.20100000E+01  1.20100000E+01
  1.40100000E+01  1.20100000E+01  1.20100000E+01  1.20100000E+01  1.20100000E+01
  1.20100000E+01  1.00800000E+00  1.00800000E+00  1.00800000E+00  1.00800000E+00
  1.00800000E+00  1.00800000E+00  1.00800000E+00  1.00800000E+00  1.00800000E+00
  1.00800000E+00  1.00800000E+00  1.00800000E+00  1.00800000E+00  1.00800000E+00
  1.00800000E+00  1.00800000E+00  1.00800000E+00  1.00800000E+00  1.20100000E+01
  1.20100000E+01  1.20100000E+01  1.20100000E+01  1.20100000E+01  1.20100000E+01
  1.20100000E+01  1.40100000E+01  1.20100000E+01  1.20100000E+01  1.20100000E+01
  1.20100000E+01  1.20100000E+01  1.00800000E+00  1.00800000E+00  1.00800000E+00
  1.00800000E+00  1.00800000E+00  1.00800000E+00  1.00800000E+00  1.00800000E+00
  1.00800000E+00  1.00800000E+00  1.00800000E+00  1.00800000E+00  1.00800000E+00
  1.00800000E+00  1.00800000E+00  1.00800000E+00  1.00800000E+00  1.00800000E+00
  1.20100000E+01  1.20100000E+01  1.20100000E+01  1.20100000E+01  1.20100000E+01
  1.20100000E+01  1.20100000E+01  1.40100000E+01  1.20100000E+01  1.20100000E+01
  1.20100000E+01  1.20100000E+01  1.20100000E+01  1.00800000E+00  1.00800000E+00
  1.20100000E+01  1.00800000E+00  1.00800000E+00  1.00800000E+00  1.00800000E+00
  1.00800000E+00  1.00800000E+00  1.00800000E+00  1.00800000E+00  1.00800000E+00
  1.00800000E+00  1.00800000E+00  1.00800000E+00  1.00800000E+00  1.00800000E+00
  1.00800000E+00  1.00800000E+00  1.00800000E+00  1.00800000E+00  1.00800000E+00
  1.00800000E+00  1.00800000E+00  1.00800000E+00
%FLAG ATOM_TYPE_INDEX                                                           
%FORMAT(10I8)                                                                   
       1       1       2       2       2       2       1       3       1       1
       1       2       2       1       4       4       4       5       5       6
       6       6       6       6       6       6       6       6       6       6
       5       5       1       1       2       2       2       2       1       3
       1       1       1       2       2       4       4       4       5       5
       6       6       6       6       6       6       6       6       6       6
       6       5       5       1       1       2       2       2       2       1
       3       1       1       1       2       2       4       4       4       5
       5       6       6       6       6       6       6       6       6       6
       6       6       5       5       1       1       2       2       2       2
       1       3       1       1       1       2       2       4       4       4
       5       5       6       6       6       6       6       6       6       6
       6       6       6       5       5       1       1       2       2       2
       2       1       3       1       1       1       2       2       4       4
       4       5       5       6       6       6       6       6       6       6
       6       6       6       6       5       5       1       1       2       2
       2       2       1       3       1       1       1       2       2       4
       4       4       5       5       6       6       6       6       6       6
       6       6       6       6       6       5       5       1       1       2
       2       2       2       1       3       1       1       1       2       2
       4       4       4       5       5       6       6       6       6       6
       6       6       6       6       6       6       5       5       1       1
       2       2       2       2       1       3       1       1       1       2
       2       4       4       4       5       5       6       6       6       6
       6       6       6       6       6       6       6       5       5       1
       1       2       2       2       2       1       3       1       1       1
       2       2       4       4       4       5       5       6       6       6
       6       6       6       6       6       6       6       6       5       5
       1       1       2       2       2       2       1       3       1       1
       1       2       2       4       4       4       5       5       6       6
       6       6       6       6       6       6       6       6       6       5
       5       1       1       2       2       2       2       1       3       1
       1       1       2       2       4       4       4       5       5       6
       6       6       6       6       6       6       6       6       6       6
       5       5       1       1       2       2       2       2       1       3
       1       1       1       2       2       4       4       4       5       5
       6       6       6       6       6       6       6       6       6       6
       6       5       5       1       1       2       2       2       2       1
       3       1       1       1       2       2       4       4       4       5
       5       6       6       6       6       6       6       6       6       6
       6       6       5       5       1       1       2       2       2       2
       1       3       1       1       1       2       2       4       4       4
       5       5       6       6       6       6       6       6       6       6
       6       6       6       5       5       1       1       2       2       2
       2       1       3       1       1       1       2       2       4       4
       4       5       5       6       6       6       6       6       6       6
       6       6       6       6       5       5       1       1       2       2
       2       2       1       3       1       1       1       2       2       4
       4       4       5       5       6       6       6       6       6       6
       6       6       6       6       6       5       5       1       1       2
       2       2       2       1       3       1       1       1       2       2
       4       4       4       5       5       6       6       6       6       6
       6       6       6       6       6       6       5       5       1       1
       2       2       2       2       1       3       1       1       1       2
       2       4       4       4       5       5       6       6       6       6
       6       6       6       6       6       6       6       5       5       1
       1       2       2       2       2       1       3       1       1       1
       2       2       4       4       4       5       5       6       6       6
       6       6       6       6       6       6       6       6       5       5
       1       1       2       2       2       2       1       3       1       1
       1       2       2       4       4       1       4       5       5       6
       6       6       6       6       6       6       6       6       6       6
       5       5       4       4       4       4       4       4
%FLAG NUMBER_EXCLUDED_ATOMS                                                     
%FORMAT(10I8)                                                                   
      15      21      17      10      10      13      19      15      13      12
      11       6       5       7       6       5       4       1       1       1
       1       2       1       1       2       1       1       2       1       1
       1       1      11      17      16      10      10      13      19      15
      13      12      11       6       5       3       2       4       1       1
       1       1       2       1       1       2       1       1       2       1
       1       1       1      11      17      16      10      10      13      19
      15      13      12      11       6       5       3       2       4       1
       1       1       1       2       1       1       2       1       1       2
       1       1       1       1      11      17      16      10      10      13
      19      15      13      12      11       6       5       3       2       4
       1       1       1       1       2       1       1       2       1       1
       2       1       1       1       1      11      17      16      10      10
      13      19      15      13      12      11       6       5       3       2
       4       1       1       1       1       2       1       1       2       1
       1       2       1       1       1       1      11      17      16      10
      10      13      19      15      13      12      11       6       5       3
       2       4       1       1       1       1       2       1       1       2
       1       1       2       1       1       1       1      11      17      16
      10      10      13      19      15      13      12      11       6       5
       3       2       4       1       1       1       1       2       1       1
       2       1       1       2       1       1       1       1      11      17
      16      10      10      13      19      15      13      12      11       6
       5       3       2       4       1       1       1       1       2       1
       1       2       1       1       2       1       1       1       1      11
      17      16      10      10      13      19      15      13      12      11
       6       5       3       2       4       1       1       1       1       2
       1       1       2       1       1       2       1       1       1       1
      11      17      16      10      10      13      19      15      13      12
      11       6       5       3       2       4       1       1       1       1
       2       1       1       2       1       1       2       1       1       1
       1      11      17      16      10      10      13      19      15      13
      12      11       6       5       3       2       4       1       1       1
       1       2       1       1       2       1       1       2       1       1
       1       1      11      17      16      10      10      13      19      15
      13      12      11       6       5       3       2       4       1       1
       1       1       2       1       1       2       1       1       2       1
       1       1       1      11      17      16      10      10      13      19
      15      13      12      11       6       5       3       2       4       1
       1       1       1       2       1       1       2       1       1       2
       1       1       1       1      11      17      16      10      10      13
      19      15      13      12      11       6       5       3       2       4
       1       1       1       1       2       1       1       2       1       1
       2       1       1       1       1      11      17      16      10      10
      13      19      15      13      12      11       6       5       3       2
       4       1       1       1       1       2       1       1       2       1
       1       2       1       1       1       1      11      17      16      10
      10      13      19      15      13      12      11       6       5       3
       2       4       1       1       1       1       2       1       1       2
       1       1       2       1       1       1       1      11      17      16
      10      10      13      19      15      13      12      11       6       5
       3       2       4       1       1       1       1       2       1       1
       2       1       1       2       1       1       1       1      11      17
      16      10      10      13      19      15      13      12      11       6
       5       3       2       4       1       1       1       1       2       1
       1       2       1       1       2       1       1       1       1      11
      17      16      10      10      13      19      15      13      12      11
       6       5       3       2       4       1       1       1       1       2
       1       1       2       1       1       2       1       1       1       1
      11      14      16      10      10      13      19      15      13      12
      11       6       5       3       2       4       3       1       1       1
       1       2       1       1       2       1       1       2       1       1
       1       1       2       1       1       2       1       1
%FLAG NONBONDED_PARM_INDEX                                                      
%FORMAT(10I8)                                                                   
       1       2       4       7      11      16       2       3       5       8
      12      17       4       5       6       9      13      18       7       8
       9      10      14      19      11      12      13      14      15      20
      16      17      18      19      20      21
%FLAG RESIDUE_LABEL                                                             
%FORMAT(20a4)                                                                   
POL 
%FLAG RESIDUE_POINTER                                                           
%FORMAT(10I8)                                                                   
       1
%FLAG BOND_FORCE_CONSTANT                                                       
%FORMAT(5E16.8)                                                                 
  2.28890000E+02  3.45250000E+02  2.43910000E+02  3.54250000E+02  3.60690000E+02
  2.15860000E+02  3.52860000E+02
%FLAG BOND_EQUIL_VALUE                                                          
%FORMAT(5E16.8)                                                                 
  1.53540000E+00  1.09620000E+00  1.51470000E+00  1.39860000E+00  1.08600000E+00
  1.51670000E+00  1.09110000E+00
%FLAG ANGLE_FORCE_CONSTANT                                                      
%FORMAT(5E16.8)                                                                 
  6.03300000E+01  4.32700000E+01  5.98700000E+01  6.07400000E+01  4.36100000E+01
  6.36700000E+01  4.49000000E+01  6.35300000E+01  4.34800000E+01  7.60200000E+01
  4.67900000E+01  3.58000000E+01  3.56300000E+01
%FLAG ANGLE_EQUIL_VALUE                                                         
%FORMAT(5E16.8)                                                                 
  1.96209999E+00  1.91427794E+00  1.96576518E+00  2.10888224E+00  1.93085858E+00
  2.09474507E+00  2.09230160E+00  2.01882321E+00  1.94447215E+00  1.90869289E+00
  1.88792346E+00  1.88024401E+00  1.91619781E+00
%FLAG DIHEDRAL_FORCE_CONSTANT                                                   
%FORMAT(5E16.8)                                                                 
  2.40000000E-01  5.20000000E-01  1.30000000E-01  3.62500000E+00  1.55555556E-01
  0.00000000E+00  0.00000000E+00  7.00000000E-01  1.56000000E-01  1.20000000E-01
  1.10000000E+00
%FLAG DIHEDRAL_PERIODICITY                                                      
%FORMAT(5E16.8)                                                                 
  2.00000000E+00  3.00000000E+00  3.00000000E+00  2.00000000E+00  3.00000000E+00
  1.00000000E+00  2.00000000E+00  2.00000000E+00  3.00000000E+00  3.00000000E+00
  2.00000000E+00
%FLAG DIHEDRAL_PHASE                                                            
%FORMAT(5E16.8)                                                                 
  3.14159400E+00  0.00000000E+00  0.00000000E+00  3.14159400E+00  0.00000000E+00
  0.00000000E+00  0.00000000E+00  0.00000000E+00  0.00000000E+00  0.00000000E+00
  3.14159400E+00
%FLAG SCEE_SCALE_FACTOR                                                         
%FORMAT(5E16.8)                                                                 
  1.20000000E+00  1.20000000E+00  1.20000000E+00  1.20000000E+00  1.20000000E+00
  1.20000000E+00  1.20000000E+00  1.20000000E+00  1.20000000E+00  1.20000000E+00
  0.00000000E+00
%FLAG SCNB_SCALE_FACTOR                                                         
%FORMAT(5E16.8)                                                                 
  2.00000000E+00  2.00000000E+00  2.00000000E+00  2.00000000E+00  2.00000000E+00
  2.00000000E+00  2.00000000E+00  2.00000000E+00  2.00000000E+00  2.00000000E+00
  0.00000000E+00
%FLAG SOLTY                                                                     
%FORMAT(5E16.8)                                                                 
  0.00000000E+00  0.00000000E+00  0.00000000E+00  0.00000000E+00  0.00000000E+00
  0.00000000E+00
%FLAG LENNARD_JONES_ACOEF                                                       
%FORMAT(5E16.8)                                                                 
  1.02073671E+06  8.43969952E+05  6.96551276E+05  1.11659990E+06  9.02707037E+05
  9.21633655E+05  1.00235148E+05  8.12662403E+04  8.57776131E+04  7.94617769E+03
  9.27554496E+04  7.52549148E+04  8.00843692E+04  7.41026906E+03  6.90855956E+03
  2.19657590E+04  1.74110867E+04  1.40871964E+04  1.35510742E+03  1.27542632E+03
  1.70079100E+02
%FLAG LENNARD_JONES_BCOEF                                                       
%FORMAT(5E16.8)                                                                 
  6.63431737E+02  5.90251928E+02  5.24668528E+02  1.69900948E+03  1.49470322E+03
  3.77949525E+03  1.37787728E+02  1.21392023E+02  3.12100979E+02  2.57122925E+01
  1.24325688E+02  1.09570372E+02  2.82860736E+02  2.32899892E+01  2.10929191E+01
  6.45020662E+01  5.61885732E+01  1.26479587E+02  1.06181419E+01  9.66228818E+00
  3.76172582E+00
%FLAG BONDS_INC_HYDROGEN                                                        
%FORMAT(10I8)                                                                   
       0      42       2       0      45       2       3      48       2       9
      51       5      12      54       5      18      57       7      18      60
       7      24      63       7      24      66       7      24      69       7
      27      72       7      27      75       7      27      78       7      30
      81       7      30      84       7      30      87       7      33      90
       5      36      93       5      39    1866       2      39    1869       2
      39    1872       2      96     135       2      96     138       2      99
     141       2     105     144       5     108     147       5     114     150
       7     114     153       7     120     156       7     120     159       7
     120     162       7     123     165       7     123     168       7     123
     171       7     126     174       7     126     177       7     126     180
       7     129     183       5     132     186       5     189     228       2
     189     231       2     192     234       2     198     237       5     201
     240       5     207     243       7     207     246       7     213     249
       7     213     252       7     213     255       7     216     258       7
     216     261       7     216     264       7     219     267       7     219
     270       7     219     273       7     222     276       5     225     279
       5     282     321       2     282     324       2     285     327       2
     291     330       5     294     333       5     300     336       7     300
     339       7     306     342       7     306     345       7     306     348
       7     309     351       7     309     354       7     309     357       7
     312     360       7     312     363       7     312     366       7     315
     369       5     318     372       5     375     414       2     375     417
       2     378     420       2     384     423       5     387     426       5
     393     429       7     393     432       7     399     435       7     399
     438       7     399     441       7     402     444       7     402     447
       7     402     450       7     405     453       7     405     456       7
     405     459       7     408     462       5     411     465       5     468
     507       2     468     510       2     471     513       2     477     516
       5     480     519       5     486     522       7     486     525       7
     492     528       7     492     531       7     492     534       7     495
     537       7     495     540       7     495     543       7     498     546
       7     498     549       7     498     552       7     501     555       5
     504     558       5     561     600       2     561     603       2     564
     606       2     570     609       5     573     612       5     579     615
       7     579     618       7     585     621       7     585     624       7
     585     627       7     588     630       7     588     633       7     588
     636       7     591     639       7     591     642       7     591     645
       7     594     648       5     597     651       5     654     693       2
     654     696       2     657     699       2     663     702       5     666
     705       5     672     708       7     672     711       7     678     714
       7     678     717       7     678     720       7     681     723       7
     681     726       7     681     729       7     684     732       7     684
     735       7     684     738       7     687     741       5     690     744
       5     747     786       2     747     789       2     750     792       2
     756     795       5     759     798       5     765     801       7     765
     804       7     771     807       7     771     810       7     771     813
       7     774     816       7     774     819       7     774     822       7
     777     825       7     777     828       7     777     831       7     780
     834       5     783     837       5     840     879       2     840     882
       2     843     885       2     849     888       5     852     891       5
     858     894       7     858     897       7     864     900       7     864
     903       7     864     906       7     867     909       7     867     912
       7     867     915       7     870     918       7     870     921       7
     870     924       7     873     927       5     876     930       5     933
     972       2     933     975       2     936     978       2     942     981
       5     945     984       5     951     987       7     951     990       7
     957     993       7     957     996       7     957     999       7     960
    1002       7     960    1005       7     960    1008       7     963    1011
       7     963    1014       7     963    1017       7     966    1020       5
     969    1023       5    1026    1065       2    1026    1068       2    1029
    1071       2    1035    1074       5    1038    1077       5    1044    1080
       7    1044    1083       7    1050    1086       7    1050    1089       7
    1050    1092       7    1053    1095       7    1053    1098       7    1053
    1101       7    1056    1104       7    1056    1107       7    1056    1110
       7    1059    1113       5    1062    1116       5    1119    1158       2
    1119    1161       2    1122    1164       2    1128    1167       5    1131
    1170       5    1137    1173       7    1137    1176       7    1143    1179
       7    1143    1182       7    1143    1185       7    1146    1188       7
    1146    1191       7    1146    1194       7    1149    1197       7    1149
    1200       7    1149    1203       7    1152    1206       5    1155    1209
       5    1212    1251       2    1212    1254       2    1215    1257       2
    1221    1260       5    1224    1263       5    1230    1266       7    1230
    1269       7    1236    1272       7    1236    1275       7    1236    1278
       7    1239    1281       7    1239    1284       7    1239    1287       7
    1242    1290       7    1242    1293       7    1242    1296       7    1245
    1299       5    1248    1302       5    1305    1344       2    1305    1347
       2    1308    1350       2    1314    1353       5    1317    1356       5
    1323    1359       7    1323    1362       7    1329    1365       7    1329
    1368       7    1329    1371       7    1332    1374       7    1332    1377
       7    1332    1380       7    1335    1383       7    1335    1386       7
    1335    1389       7    1338    1392       5    1341    1395       5    1398
    1437       2    1398    1440       2    1401    1443       2    1407    1446
       5    1410    1449       5    1416    1452       7    1416    1455       7
    1422    1458       7    1422    1461       7    1422    1464       7    1425
    1467       7    1425    1470       7    1425    1473       7    1428    1476
       7    1428    1479       7    1428    1482       7    1431    1485       5
    1434    1488       5    1491    1530       2    1491    1533       2    1494
    1536       2    1500    1539       5    1503    1542       5    1509    1545
       7    1509    1548       7    1515    1551       7    1515    1554       7
    1515    1557       7    1518    1560       7    1518    1563       7    1518
    1566       7    1521    1569       7    1521    1572       7    1521    1575
       7    1524    1578       5    1527    1581       5    1584    1623       2
    1584    1626       2    1587    1629       2    1593    1632       5    1596
    1635       5    1602    1638       7    1602    1641       7    1608    1644
       7    1608    1647       7    1608    1650       7    1611    1653       7
    1611    1656       7    1611    1659       7    1614    1662       7    1614
    1665       7    1614    1668       7    1617    1671       5    1620    1674
       5    1677    1716       2    1677    1719       2    1680    1722       2
    1686    1725       5    1689    1728       5    1695    1731       7    1695
    1734       7    1701    1737       7    1701    1740       7    1701    1743
       7    1704    1746       7    1704    1749       7    1704    1752       7
    1707    1755       7    1707    1758       7    1707    1761       7    1710
    1764       5    1713    1767       5    1770    1809       2    1770    1812
       2    1773    1818       2    1779    1821       5    1782    1824       5
    1788    1827       7    1788    1830       7    1794    1833       7    1794
    1836       7    1794    1839       7    1797    1842       7    1797    1845
       7    1797    1848       7    1800    1851       7    1800    1854       7
    1800    1857       7    1803    1860       5    1806    1863       5    1815
    1875       2    1815    1878       2    1815    1881       2
%FLAG BONDS_WITHOUT_HYDROGEN                                                    
%FORMAT(10I8)                                                                   
       0       3       1       0      39       1       3       6       3       3
      96       1       6       9       4       6      36       4       9      12
       4      12      15       4      15      18       3      15      33       4
      18      21       6      21      24       6      21      27       6      21
      30       6      33      36       4      96      99       1      99     102
       3      99     189       1     102     105       4     102     132       4
     105     108       4     108     111       4     111     114       3     111
     129       4     114     117       6     117     120       6     117     123
       6     117     126       6     129     132       4     189     192       1
     192     195       3     192     282       1     195     198       4     195
     225       4     198     201       4     201     204       4     204     207
       3     204     222       4     207     210       6     210     213       6
     210     216       6     210     219       6     222     225       4     282
     285       1     285     288       3     285     375       1     288     291
       4     288     318       4     291     294       4     294     297       4
     297     300       3     297     315       4     300     303       6     303
     306       6     303     309       6     303     312       6     315     318
       4     375     378       1     378     381       3     378     468       1
     381     384       4     381     411       4     384     387       4     387
     390       4     390     393       3     390     408       4     393     396
       6     396     399       6     396     402       6     396     405       6
     408     411       4     468     471       1     471     474       3     471
     561       1     474     477       4     474     504       4     477     480
       4     480     483       4     483     486       3     483     501       4
     486     489       6     489     492       6     489     495       6     489
     498       6     501     504       4     561     564       1     564     567
       3     564     654       1     567     570       4     567     597       4
     570     573       4     573     576       4     576     579       3     576
     594       4     579     582       6     582     585       6     582     588
       6     582     591       6     594     597       4     654     657       1
     657     660       3     657     747       1     660     663       4     660
     690       4     663     666       4     666     669       4     669     672
       3     669     687       4     672     675       6     675     678       6
     675     681       6     675     684       6     687     690       4     747
     750       1     750     753       3     750     840       1     753     756
       4     753     783       4     756     759       4     759     762       4
     762     765       3     762     780       4     765     768       6     768
     771       6     768     774       6     768     777       6     780     783
       4     840     843       1     843     846       3     843     933       1
     846     849       4     846     876       4     849     852       4     852
     855       4     855     858       3     855     873       4     858     861
       6     861     864       6     861     867       6     861     870       6
     873     876       4     933     936       1     936     939       3     936
    1026       1     939     942       4     939     969       4     942     945
       4     945     948       4     948     951       3     948     966       4
     951     954       6     954     957       6     954     960       6     954
     963       6     966     969       4    1026    1029       1    1029    1032
       3    1029    1119       1    1032    1035       4    1032    1062       4
    1035    1038       4    1038    1041       4    1041    1044       3    1041
    1059       4    1044    1047       6    1047    1050       6    1047    1053
       6    1047    1056       6    1059    1062       4    1119    1122       1
    1122    1125       3    1122    1212       1    1125    1128       4    1125
    1155       4    1128    1131       4    1131    1134       4    1134    1137
       3    1134    1152       4    1137    1140       6    1140    1143       6
    1140    1146       6    1140    1149       6    1152    1155       4    1212
    1215       1    1215    1218       3    1215    1305       1    1218    1221
       4    1218    1248       4    1221    1224       4    1224    1227       4
    1227    1230       3    1227    1245       4    1230    1233       6    1233
    1236       6    1233    1239       6    1233    1242       6    1245    1248
       4    1305    1308       1    1308    1311       3    1308    1398       1
    1311    1314       4    1311    1341       4    1314    1317       4    1317
    1320       4    1320    1323       3    1320    1338       4    1323    1326
       6    1326    1329       6    1326    1332       6    1326    1335       6
    1338    1341       4    1398    1401       1    1401    1404       3    1401
    1491       1    1404    1407       4    1404    1434       4    1407    1410
       4    1410    1413       4    1413    1416       3    1413    1431       4
    1416    1419       6    1419    1422       6    1419    1425       6    1419
    1428       6    1431    1434       4    1491    1494       1    1494    1497
       3    1494    1584       1    1497    1500       4    1497    1527       4
    1500    1503       4    1503    1506       4    1506    1509       3    1506
    1524       4    1509    1512       6    1512    1515       6    1512    1518
       6    1512    1521       6    1524    1527       4    1584    1587       1
    1587    1590       3    1587    1677       1    1590    1593       4    1590
    1620       4    1593    1596       4    1596    1599       4    1599    1602
       3    1599    1617       4    1602    1605       6    1605    1608       6
    1605    1611       6    1605    1614       6    1617    1620       4    1677
    1680       1    1680    1683       3    1680    1770       1    1683    1686
       4    1683    1713       4    1686    1689       4    1689    1692       4
    1692    1695       3    1692    1710       4    1695    1698       6    1698
    1701       6    1698    1704       6    1698    1707       6    1710    1713
       4    1770    1773       1    1773    1776       3    1773    1815       1
    1776    1779       4    1776    1806       4    1779    1782       4    1782
    1785       4    1785    1788       3    1785    1803       4    1788    1791
       6    1791    1794       6    1791    1797       6    1791    1800       6
    1803    1806       4
%FLAG ANGLES_INC_HYDROGEN                                                       
%FORMAT(10I8)                                                                   
       0       3      48       2       0      39    1866       2       0      39
    1869       2       0      39    1872       2       3       0      42       2
       3       0      45       2       3      96     135       2       3      96
     138       2       6       3      48       5       6       9      51       7
       6      36      93       7       9      12      54       7      12       9
      51       7      15      12      54       7      15      18      57       9
      15      18      60       9      15      33      90       7      21      18
      57      11      21      18      60      11      21      24      63      11
      21      24      66      11      21      24      69      11      21      27
      72      11      21      27      75      11      21      27      78      11
      21      30      81      11      21      30      84      11      21      30
      87      11      33      36      93       7      36      33      90       7
      39       0      42       2      39       0      45       2      42       0
      45      12      48       3      96       2      57      18      60      13
      63      24      66      13      63      24      69      13      66      24
      69      13      72      27      75      13      72      27      78      13
      75      27      78      13      81      30      84      13      81      30
      87      13      84      30      87      13      96      99     141       2
      99      96     135       2      99      96     138       2      99     189
     228       2      99     189     231       2     102      99     141       5
     102     105     144       7     102     132     186       7     105     108
     147       7     108     105     144       7     111     108     147       7
     111     114     150       9     111     114     153       9     111     129
     183       7     117     114     150      11     117     114     153      11
     117     120     156      11     117     120     159      11     117     120
     162      11     117     123     165      11     117     123     168      11
     117     123     171      11     117     126     174      11     117     126
     177      11     117     126     180      11     129     132     186       7
     132     129     183       7     135      96     138      12     141      99
     189       2     150     114     153      13     156     120     159      13
     156     120     162      13     159     120     162      13     165     123
     168      13     165     123     171      13     168     123     171      13
     174     126     177      13     174     126     180      13     177     126
     180      13     189     192     234       2     192     189     228       2
     192     189     231       2     192     282     321       2     192     282
     324       2     195     192     234       5     195     198     237       7
     195     225     279       7     198     201     240       7     201     198
     237       7     204     201     240       7     204     207     243       9
     204     207     246       9     204     222     276       7     210     207
     243      11     210     207     246      11     210     213     249      11
     210     213     252      11     210     213     255      11     210     216
     258      11     210     216     261      11     210     216     264      11
     210     219     267      11     210     219     270      11     210     219
     273      11     222     225     279       7     225     222     276       7
     228     189     231      12     234     192     282       2     243     207
     246      13     249     213     252      13     249     213     255      13
     252     213     255      13     258     216     261      13     258     216
     264      13     261     216     264      13     267     219     270      13
     267     219     273      13     270     219     273      13     282     285
     327       2     285     282     321       2     285     282     324       2
     285     375     414       2     285     375     417       2     288     285
     327       5     288     291     330       7     288     318     372       7
     291     294     333       7     294     291     330       7     297     294
     333       7     297     300     336       9     297     300     339       9
     297     315     369       7     303     300     336      11     303     300
     339      11     303     306     342      11     303     306     345      11
     303     306     348      11     303     309     351      11     303     309
     354      11     303     309     357      11     303     312     360      11
     303     312     363      11     303     312     366      11     315     318
     372       7     318     315     369       7     321     282     324      12
     327     285     375       2     336     300     339      13     342     306
     345      13     342     306     348      13     345     306     348      13
     351     309     354      13     351     309     357      13     354     309
     357      13     360     312     363      13     360     312     366      13
     363     312     366      13     375     378     420       2     378     375
     414       2     378     375     417       2     378     468     507       2
     378     468     510       2     381     378     420       5     381     384
     423       7     381     411     465       7     384     387     426       7
     387     384     423       7     390     387     426       7     390     393
     429       9     390     393     432       9     390     408     462       7
     396     393     429      11     396     393     432      11     396     399
     435      11     396     399     438      11     396     399     441      11
     396     402     444      11     396     402     447      11     396     402
     450      11     396     405     453      11     396     405     456      11
     396     405     459      11     408     411     465       7     411     408
     462       7     414     375     417      12     420     378     468       2
     429     393     432      13     435     399     438      13     435     399
     441      13     438     399     441      13     444     402     447      13
     444     402     450      13     447     402     450      13     453     405
     456      13     453     405     459      13     456     405     459      13
     468     471     513       2     471     468     507       2     471     468
     510       2     471     561     600       2     471     561     603       2
     474     471     513       5     474     477     516       7     474     504
     558       7     477     480     519       7     480     477     516       7
     483     480     519       7     483     486     522       9     483     486
     525       9     483     501     555       7     489     486     522      11
     489     486     525      11     489     492     528      11     489     492
     531      11     489     492     534      11     489     495     537      11
     489     495     540      11     489     495     543      11     489     498
     546      11     489     498     549      11     489     498     552      11
     501     504     558       7     504     501     555       7     507     468
     510      12     513     471     561       2     522     486     525      13
     528     492     531      13     528     492     534      13     531     492
     534      13     537     495     540      13     537     495     543      13
     540     495     543      13     546     498     549      13     546     498
     552      13     549     498     552      13     561     564     606       2
     564     561     600       2     564     561     603       2     564     654
     693       2     564     654     696       2     567     564     606       5
     567     570     609       7     567     597     651       7     570     573
     612       7     573     570     609       7     576     573     612       7
     576     579     615       9     576     579     618       9     576     594
     648       7     582     579     615      11     582     579     618      11
     582     585     621      11     582     585     624      11     582     585
     627      11     582     588     630      11     582     588     633      11
     582     588     636      11     582     591     639      11     582     591
     642      11     582     591     645      11     594     597     651       7
     597     594     648       7     600     561     603      12     606     564
     654       2     615     579     618      13     621     585     624      13
     621     585     627      13     624     585     627      13     630     588
     633      13     630     588     636      13     633     588     636      13
     639     591     642      13     639     591     645      13     642     591
     645      13     654     657     699       2     657     654     693       2
     657     654     696       2     657     747     786       2     657     747
     789       2     660     657     699       5     660     663     702       7
     660     690     744       7     663     666     705       7     666     663
     702       7     669     666     705       7     669     672     708       9
     669     672     711       9     669     687     741       7     675     672
     708      11     675     672     711      11     675     678     714      11
     675     678     717      11     675     678     720      11     675     681
     723      11     675     681     726      11     675     681     729      11
     675     684     732      11     675     684     735      11     675     684
     738      11     687     690     744       7     690     687     741       7
     693     654     696      12     699     657     747       2     708     672
     711      13     714     678     717      13     714     678     720      13
     717     678     720      13     723     681     726      13     723     681
     729      13     726     681     729      13     732     684     735      13
     732     684     738      13     735     684     738      13     747     750
     792       2     750     747     786       2     750     747     789       2
     750     840     879       2     750     840     882       2     753     750
     792       5     753     756     795       7     753     783     837       7
     756     759     798       7     759     756     795       7     762     759
     798       7     762     765     801       9     762     765     804       9
     762     780     834       7     768     765     801      11     768     765
     804      11     768     771     807      11     768     771     810      11
     768     771     813      11     768     774     816      11     768     774
     819      11     768     774     822      11     768     777     825      11
     768     777     828      11     768     777     831      11     780     783
     837       7     783     780     834       7     786     747     789      12
     792     750     840       2     801     765     804      13     807     771
     810      13     807     771     813      13     810     771     813      13
     816     774     819      13     816     774     822      13     819     774
     822      13     825     777     828      13     825     777     831      13
     828     777     831      13     840     843     885       2     843     840
     879       2     843     840     882       2     843     933     972       2
     843     933     975       2     846     843     885       5     846     849
     888       7     846     876     930       7     849     852     891       7
     852     849     888       7     855     852     891       7     855     858
     894       9     855     858     897       9     855     873     927       7
     861     858     894      11     861     858     897      11     861     864
     900      11     861     864     903      11     861     864     906      11
     861     867     909      11     861     867     912      11     861     867
     915      11     861     870     918      11     861     870     921      11
     861     870     924      11     873     876     930       7     876     873
     927       7     879     840     882      12     885     843     933       2
     894     858     897      13     900     864     903      13     900     864
     906      13     903     864     906      13     909     867     912      13
     909     867     915      13     912     867     915      13     918     870
     921      13     918     870     924      13     921     870     924      13
     933     936     978       2     936     933     972       2     936     933
     975       2     936    1026    1065       2     936    1026    1068       2
     939     936     978       5     939     942     981       7     939     969
    1023       7     942     945     984       7     945     942     981       7
     948     945     984       7     948     951     987       9     948     951
     990       9     948     966    1020       7     954     951     987      11
     954     951     990      11     954     957     993      11     954     957
     996      11     954     957     999      11     954     960    1002      11
     954     960    1005      11     954     960    1008      11     954     963
    1011      11     954     963    1014      11     954     963    1017      11
     966     969    1023       7     969     966    1020       7     972     933
     975      12     978     936    1026       2     987     951     990      13
     993     957     996      13     993     957     999      13     996     957
     999      13    1002     960    1005      13    1002     960    1008      13
    1005     960    1008      13    1011     963    1014      13    1011     963
    1017      13    1014     963    1017      13    1026    1029    1071       2
    1029    1026    1065       2    1029    1026    1068       2    1029    1119
    1158       2    1029    1119    1161       2    1032    1029    1071       5
    1032    1035    1074       7    1032    1062    1116       7    1035    1038
    1077       7    1038    1035    1074       7    1041    1038    1077       7
    1041    1044    1080       9    1041    1044    1083       9    1041    1059
    1113       7    1047    1044    1080      11    1047    1044    1083      11
    1047    1050    1086      11    1047    1050    1089      11    1047    1050
    1092      11    1047    1053    1095      11    1047    1053    1098      11
    1047    1053    1101      11    1047    1056    1104      11    1047    1056
    1107      11    1047    1056    1110      11    1059    1062    1116       7
    1062    1059    1113       7    1065    1026    1068      12    1071    1029
    1119       2    1080    1044    1083      13    1086    1050    1089      13
    1086    1050    1092      13    1089    1050    1092      13    1095    1053
    1098      13    1095    1053    1101      13    1098    1053    1101      13
    1104    1056    1107      13    1104    1056    1110      13    1107    1056
    1110      13    1119    1122    1164       2    1122    1119    1158       2
    1122    1119    1161       2    1122    1212    1251       2    1122    1212
    1254       2    1125    1122    1164       5    1125    1128    1167       7
    1125    1155    1209       7    1128    1131    1170       7    1131    1128
    1167       7    1134    1131    1170       7    1134    1137    1173       9
    1134    1137    1176       9    1134    1152    1206       7    1140    1137
    1173      11    1140    1137    1176      11    1140    1143    1179      11
    1140    1143    1182      11    1140    1143    1185      11    1140    1146
    1188      11    1140    1146    1191      11    1140    1146    1194      11
    1140    1149    1197      11    1140    1149    1200      11    1140    1149
    1203      11    1152    1155    1209       7    1155    1152    1206       7
    1158    1119    1161      12    1164    1122    1212       2    1173    1137
    1176      13    1179    1143    1182      13    1179    1143    1185      13
    1182    1143    1185      13    1188    1146    1191      13    1188    1146
    1194      13    1191    1146    1194      13    1197    1149    1200      13
    1197    1149    1203      13    1200    1149    1203      13    1212    1215
    1257       2    1215    1212    1251       2    1215    1212    1254       2
    1215    1305    1344       2    1215    1305    1347       2    1218    1215
    1257       5    1218    1221    1260       7    1218    1248    1302       7
    1221    1224    1263       7    1224    1221    1260       7    1227    1224
    1263       7    1227    1230    1266       9    1227    1230    1269       9
    1227    1245    1299       7    1233    1230    1266      11    1233    1230
    1269      11    1233    1236    1272      11    1233    1236    1275      11
    1233    1236    1278      11    1233    1239    1281      11    1233    1239
    1284      11    1233    1239    1287      11    1233    1242    1290      11
    1233    1242    1293      11    1233    1242    1296      11    1245    1248
    1302       7    1248    1245    1299       7    1251    1212    1254      12
    1257    1215    1305       2    1266    1230    1269      13    1272    1236
    1275      13    1272    1236    1278      13    1275    1236    1278      13
    1281    1239    1284      13    1281    1239    1287      13    1284    1239
    1287      13    1290    1242    1293      13    1290    1242    1296      13
    1293    1242    1296      13    1305    1308    1350       2    1308    1305
    1344       2    1308    1305    1347       2    1308    1398    1437       2
    1308    1398    1440       2    1311    1308    1350       5    1311    1314
    1353       7    1311    1341    1395       7    1314    1317    1356       7
    1317    1314    1353       7    1320    1317    1356       7    1320    1323
    1359       9    1320    1323    1362       9    1320    1338    1392       7
    1326    1323    1359      11    1326    1323    1362      11    1326    1329
    1365      11    1326    1329    1368      11    1326    1329    1371      11
    1326    1332    1374      11    1326    1332    1377      11    1326    1332
    1380      11    1326    1335    1383      11    1326    1335    1386      11
    1326    1335    1389      11    1338    1341    1395       7    1341    1338
    1392       7    1344    1305    1347      12    1350    1308    1398       2
    1359    1323    1362      13    1365    1329    1368      13    1365    1329
    1371      13    1368    1329    1371      13    1374    1332    1377      13
    1374    1332    1380      13    1377    1332    1380      13    1383    1335
    1386      13    1383    1335    1389      13    1386    1335    1389      13
    1398    1401    1443       2    1401    1398    1437       2    1401    1398
    1440       2    1401    1491    1530       2    1401    1491    1533       2
    1404    1401    1443       5    1404    1407    1446       7    1404    1434
    1488       7    1407    1410    1449       7    1410    1407    1446       7
    1413    1410    1449       7    1413    1416    1452       9    1413    1416
    1455       9    1413    1431    1485       7    1419    1416    1452      11
    1419    1416    1455      11    1419    1422    1458      11    1419    1422
    1461      11    1419    1422    1464      11    1419    1425    1467      11
    1419    1425    1470      11    1419    1425    1473      11    1419    1428
    1476      11    1419    1428    1479      11    1419    1428    1482      11
    1431    1434    1488       7    1434    1431    1485       7    1437    1398
    1440      12    1443    1401    1491       2    1452    1416    1455      13
    1458    1422    1461      13    1458    1422    1464      13    1461    1422
    1464      13    1467    1425    1470      13    1467    1425    1473      13
    1470    1425    1473      13    1476    1428    1479      13    1476    1428
    1482      13    1479    1428    1482      13    1491    1494    1536       2
    1494    1491    1530       2    1494    1491    1533       2    1494    1584
    1623       2    1494    1584    1626       2    1497    1494    1536       5
    1497    1500    1539       7    1497    1527    1581       7    1500    1503
    1542       7    1503    1500    1539       7    1506    1503    1542       7
    1506    1509    1545       9    1506    1509    1548       9    1506    1524
    1578       7    1512    1509    1545      11    1512    1509    1548      11
    1512    1515    1551      11    1512    1515    1554      11    1512    1515
    1557      11    1512    1518    1560      11    1512    1518    1563      11
    1512    1518    1566      11    1512    1521    1569      11    1512    1521
    1572      11    1512    1521    1575      11    1524    1527    1581       7
    1527    1524    1578       7    1530    1491    1533      12    1536    1494
    1584       2    1545    1509    1548      13    1551    1515    1554      13
    1551    1515    1557      13    1554    1515    1557      13    1560    1518
    1563      13    1560    1518    1566      13    1563    1518    1566      13
    1569    1521    1572      13    1569    1521    1575      13    1572    1521
    1575      13    1584    1587    1629       2    1587    1584    1623       2
    1587    1584    1626       2    1587    1677    1716       2    1587    1677
    1719       2    1590    1587    1629       5    1590    1593    1632       7
    1590    1620    1674       7    1593    1596    1635       7    1596    1593
    1632       7    1599    1596    1635       7    1599    1602    1638       9
    1599    1602    1641       9    1599    1617    1671       7    1605    1602
    1638      11    1605    1602    1641      11    1605    1608    1644      11
    1605    1608    1647      11    1605    1608    1650      11    1605    1611
    1653      11    1605    1611    1656      11    1605    1611    1659      11
    1605    1614    1662      11    1605    1614    1665      11    1605    1614
    1668      11    1617    1620    1674       7    1620    1617    1671       7
    1623    1584    1626      12    1629    1587    1677       2    1638    1602
    1641      13    1644    1608    1647      13    1644    1608    1650      13
    1647    1608    1650      13    1653    1611    1656      13    1653    1611
    1659      13    1656    1611    1659      13    1662    1614    1665      13
    1662    1614    1668      13    1665    1614    1668      13    1677    1680
    1722       2    1680    1677    1716       2    1680    1677    1719       2
    1680    1770    1809       2    1680    1770    1812       2    1683    1680
    1722       5    1683    1686    1725       7    1683    1713    1767       7
    1686    1689    1728       7    1689    1686    1725       7    1692    1689
    1728       7    1692    1695    1731       9    1692    1695    1734       9
    1692    1710    1764       7    1698    1695    1731      11    1698    1695
    1734      11    1698    1701    1737      11    1698    1701    1740      11
    1698    1701    1743      11    1698    1704    1746      11    1698    1704
    1749      11    1698    1704    1752      11    1698    1707    1755      11
    1698    1707    1758      11    1698    1707    1761      11    1710    1713
    1767       7    1713    1710    1764       7    1716    1677    1719      12
    1722    1680    1770       2    1731    1695    1734      13    1737    1701
    1740      13    1737    1701    1743      13    1740    1701    1743      13
    1746    1704    1749      13    1746    1704    1752      13    1749    1704
    1752      13    1755    1707    1758      13    1755    1707    1761      13
    1758    1707    1761      13    1770    1773    1818       2    1773    1770
    1809       2    1773    1770    1812       2    1773    1815    1875       2
    1773    1815    1878       2    1773    1815    1881       2    1776    1773
    1818       5    1776    1779    1821       7    1776    1806    1863       7
    1779    1782    1824       7    1782    1779    1821       7    1785    1782
    1824       7    1785    1788    1827       9    1785    1788    1830       9
    1785    1803    1860       7    1791    1788    1827      11    1791    1788
    1830      11    1791    1794    1833      11    1791    1794    1836      11
    1791    1794    1839      11    1791    1797    1842      11    1791    1797
    1845      11    1791    1797    1848      11    1791    1800    1851      11
    1791    1800    1854      11    1791    1800    1857      11    1803    1806
    1863       7    1806    1803    1860       7    1809    1770    1812      12
    1815    1773    1818       2    1827    1788    1830      13    1833    1794
    1836      13    1833    1794    1839      13    1836    1794    1839      13
    1842    1797    1845      13    1842    1797    1848      13    1845    1797
    1848      13    1851    1800    1854      13    1851    1800    1857      13
    1854    1800    1857      13    1866      39    1869      12    1866      39
    1872      12    1869      39    1872      12    1875    1815    1878      12
    1875    1815    1881      12    1878    1815    1881      12
%FLAG ANGLES_WITHOUT_HYDROGEN                                                   
%FORMAT(10I8)                                                                   
       0       3       6       1       0       3      96       3       3       0
      39       3       3       6       9       4       3       6      36       4
       3      96      99       3       6       3      96       1       6       9
      12       6       6      36      33       6       9       6      36       6
       9      12      15       6      12      15      18       4      12      15
      33       6      15      18      21       8      15      33      36       6
      18      15      33       4      18      21      24      10      18      21
      27      10      18      21      30      10      24      21      27      10
      24      21      30      10      27      21      30      10      96      99
     102       1      96      99     189       3      99     102     105       4
      99     102     132       4      99     189     192       3     102      99
     189       1     102     105     108       6     102     132     129       6
     105     102     132       6     105     108     111       6     108     111
     114       4     108     111     129       6     111     114     117       8
     111     129     132       6     114     111     129       4     114     117
     120      10     114     117     123      10     114     117     126      10
     120     117     123      10     120     117     126      10     123     117
     126      10     189     192     195       1     189     192     282       3
     192     195     198       4     192     195     225       4     192     282
     285       3     195     192     282       1     195     198     201       6
     195     225     222       6     198     195     225       6     198     201
     204       6     201     204     207       4     201     204     222       6
     204     207     210       8     204     222     225       6     207     204
     222       4     207     210     213      10     207     210     216      10
     207     210     219      10     213     210     216      10     213     210
     219      10     216     210     219      10     282     285     288       1
     282     285     375       3     285     288     291       4     285     288
     318       4     285     375     378       3     288     285     375       1
     288     291     294       6     288     318     315       6     291     288
     318       6     291     294     297       6     294     297     300       4
     294     297     315       6     297     300     303       8     297     315
     318       6     300     297     315       4     300     303     306      10
     300     303     309      10     300     303     312      10     306     303
     309      10     306     303     312      10     309     303     312      10
     375     378     381       1     375     378     468       3     378     381
     384       4     378     381     411       4     378     468     471       3
     381     378     468       1     381     384     387       6     381     411
     408       6     384     381     411       6     384     387     390       6
     387     390     393       4     387     390     408       6     390     393
     396       8     390     408     411       6     393     390     408       4
     393     396     399      10     393     396     402      10     393     396
     405      10     399     396     402      10     399     396     405      10
     402     396     405      10     468     471     474       1     468     471
     561       3     471     474     477       4     471     474     504       4
     471     561     564       3     474     471     561       1     474     477
     480       6     474     504     501       6     477     474     504       6
     477     480     483       6     480     483     486       4     480     483
     501       6     483     486     489       8     483     501     504       6
     486     483     501       4     486     489     492      10     486     489
     495      10     486     489     498      10     492     489     495      10
     492     489     498      10     495     489     498      10     561     564
     567       1     561     564     654       3     564     567     570       4
     564     567     597       4     564     654     657       3     567     564
     654       1     567     570     573       6     567     597     594       6
     570     567     597       6     570     573     576       6     573     576
     579       4     573     576     594       6     576     579     582       8
     576     594     597       6     579     576     594       4     579     582
     585      10     579     582     588      10     579     582     591      10
     585     582     588      10     585     582     591      10     588     582
     591      10     654     657     660       1     654     657     747       3
     657     660     663       4     657     660     690       4     657     747
     750       3     660     657     747       1     660     663     666       6
     660     690     687       6     663     660     690       6     663     666
     669       6     666     669     672       4     666     669     687       6
     669     672     675       8     669     687     690       6     672     669
     687       4     672     675     678      10     672     675     681      10
     672     675     684      10     678     675     681      10     678     675
     684      10     681     675     684      10     747     750     753       1
     747     750     840       3     750     753     756       4     750     753
     783       4     750     840     843       3     753     750     840       1
     753     756     759       6     753     783     780       6     756     753
     783       6     756     759     762       6     759     762     765       4
     759     762     780       6     762     765     768       8     762     780
     783       6     765     762     780       4     765     768     771      10
     765     768     774      10     765     768     777      10     771     768
     774      10     771     768     777      10     774     768     777      10
     840     843     846       1     840     843     933       3     843     846
     849       4     843     846     876       4     843     933     936       3
     846     843     933       1     846     849     852       6     846     876
     873       6     849     846     876       6     849     852     855       6
     852     855     858       4     852     855     873       6     855     858
     861       8     855     873     876       6     858     855     873       4
     858     861     864      10     858     861     867      10     858     861
     870      10     864     861     867      10     864     861     870      10
     867     861     870      10     933     936     939       1     933     936
    1026       3     936     939     942       4     936     939     969       4
     936    1026    1029       3     939     936    1026       1     939     942
     945       6     939     969     966       6     942     939     969       6
     942     945     948       6     945     948     951       4     945     948
     966       6     948     951     954       8     948     966     969       6
     951     948     966       4     951     954     957      10     951     954
     960      10     951     954     963      10     957     954     960      10
     957     954     963      10     960     954     963      10    1026    1029
    1032       1    1026    1029    1119       3    1029    1032    1035       4
    1029    1032    1062       4    1029    1119    1122       3    1032    1029
    1119       1    1032    1035    1038       6    1032    1062    1059       6
    1035    1032    1062       6    1035    1038    1041       6    1038    1041
    1044       4    1038    1041    1059       6    1041    1044    1047       8
    1041    1059    1062       6    1044    1041    1059       4    1044    1047
    1050      10    1044    1047    1053      10    1044    1047    1056      10
    1050    1047    1053      10    1050    1047    1056      10    1053    1047
    1056      10    1119    1122    1125       1    1119    1122    1212       3
    1122    1125    1128       4    1122    1125    1155       4    1122    1212
    1215       3    1125    1122    1212       1    1125    1128    1131       6
    1125    1155    1152       6    1128    1125    1155       6    1128    1131
    1134       6    1131    1134    1137       4    1131    1134    1152       6
    1134    1137    1140       8    1134    1152    1155       6    1137    1134
    1152       4    1137    1140    1143      10    1137    1140    1146      10
    1137    1140    1149      10    1143    1140    1146      10    1143    1140
    1149      10    1146    1140    1149      10    1212    1215    1218       1
    1212    1215    1305       3    1215    1218    1221       4    1215    1218
    1248       4    1215    1305    1308       3    1218    1215    1305       1
    1218    1221    1224       6    1218    1248    1245       6    1221    1218
    1248       6    1221    1224    1227       6    1224    1227    1230       4
    1224    1227    1245       6    1227    1230    1233       8    1227    1245
    1248       6    1230    1227    1245       4    1230    1233    1236      10
    1230    1233    1239      10    1230    1233    1242      10    1236    1233
    1239      10    1236    1233    1242      10    1239    1233    1242      10
    1305    1308    1311       1    1305    1308    1398       3    1308    1311
    1314       4    1308    1311    1341       4    1308    1398    1401       3
    1311    1308    1398       1    1311    1314    1317       6    1311    1341
    1338       6    1314    1311    1341       6    1314    1317    1320       6
    1317    1320    1323       4    1317    1320    1338       6    1320    1323
    1326       8    1320    1338    1341       6    1323    1320    1338       4
    1323    1326    1329      10    1323    1326    1332      10    1323    1326
    1335      10    1329    1326    1332      10    1329    1326    1335      10
    1332    1326    1335      10    1398    1401    1404       1    1398    1401
    1491       3    1401    1404    1407       4    1401    1404    1434       4
    1401    1491    1494       3    1404    1401    1491       1    1404    1407
    1410       6    1404    1434    1431       6    1407    1404    1434       6
    1407    1410    1413       6    1410    1413    1416       4    1410    1413
    1431       6    1413    1416    1419       8    1413    1431    1434       6
    1416    1413    1431       4    1416    1419    1422      10    1416    1419
    1425      10    1416    1419    1428      10    1422    1419    1425      10
    1422    1419    1428      10    1425    1419    1428      10    1491    1494
    1497       1    1491    1494    1584       3    1494    1497    1500       4
    1494    1497    1527       4    1494    1584    1587       3    1497    1494
    1584       1    1497    1500    1503       6    1497    1527    1524       6
    1500    1497    1527       6    1500    1503    1506       6    1503    1506
    1509       4    1503    1506    1524       6    1506    1509    1512       8
    1506    1524    1527       6    1509    1506    1524       4    1509    1512
    1515      10    1509    1512    1518      10    1509    1512    1521      10
    1515    1512    1518      10    1515    1512    1521      10    1518    1512
    1521      10    1584    1587    1590       1    1584    1587    1677       3
    1587    1590    1593       4    1587    1590    1620       4    1587    1677
    1680       3    1590    1587    1677       1    1590    1593    1596       6
    1590    1620    1617       6    1593    1590    1620       6    1593    1596
    1599       6    1596    1599    1602       4    1596    1599    1617       6
    1599    1602    1605       8    1599    1617    1620       6    1602    1599
    1617       4    1602    1605    1608      10    1602    1605    1611      10
    1602    1605    1614      10    1608    1605    1611      10    1608    1605
    1614      10    1611    1605    1614      10    1677    1680    1683       1
    1677    1680    1770       3    1680    1683    1686       4    1680    1683
    1713       4    1680    1770    1773       3    1683    1680    1770       1
    1683    1686    1689       6    1683    1713    1710       6    1686    1683
    1713       6    1686    1689    1692       6    1689    1692    1695       4
    1689    1692    1710       6    1692    1695    1698       8    1692    1710
    1713       6    1695    1692    1710       4    1695    1698    1701      10
    1695    1698    1704      10    1695    1698    1707      10    1701    1698
    1704      10    1701    1698    1707      10    1704    1698    1707      10
    1770    1773    1776       1    1770    1773    1815       3    1773    1776
    1779       4    1773    1776    1806       4    1776    1773    1815       1
    1776    1779    1782       6    1776    1806    1803       6    1779    1776
    1806       6    1779    1782    1785       6    1782    1785    1788       4
    1782    1785    1803       6    1785    1788    1791       8    1785    1803
    1806       6    1788    1785    1803       4    1788    1791    1794      10
    1788    1791    1797      10    1788    1791    1800      10    1794    1791
    1797      10    1794    1791    1800      10    1797    1791    1800      10
%FLAG DIHEDRALS_INC_HYDROGEN                                                    
%FORMAT(10I8)                                                                   
       0       3      96     135       3       0       3      96     138       3
       3       0      39    1866       3       3       0      39    1869       3
       3       0      39    1872       3       3       6       9      51       4
       3       6      36      93       4       3      96      99     141       3
      42       0       3       6       5      45       0       3       6       5
       6       3      96     135       5       6       3      96     138       5
       6       9      12      54       4       6      36      33      90       4
       9       6       3      48       6       9       6      36      93       4
      12      15      18      57       7      12      15      18      60       7
      12      15      33      90       4      15      12       9      51       4
      15      33      36      93       4      18      15      12      54       4
      18      15      33      90       4      18      21      24      63       5
      18      21      24      66       5      18      21      24      69       5
      18      21      27      72       5      18      21      27      75       5
      18      21      27      78       5      18      21      30      81       5
      18      21      30      84       5      18      21      30      87       5
      24      21      18      57       5      24      21      18      60       5
      24      21      27      72       5      24      21      27      75       5
      24      21      27      78       5      24      21      30      81       5
      24      21      30      84       5      24      21      30      87       5
      27      21      18      57       5      27      21      18      60       5
      27      21      24      63       5      27      21      24      66       5
      27      21      24      69       5      27      21      30      81       5
      27      21      30      84       5      27      21      30      87       5
      30      21      18      57       5      30      21      18      60       5
      30      21      24      63       5      30      21      24      66       5
      30      21      24      69       5      30      21      27      72       5
      30      21      27      75       5      30      21      27      78       5
      33      15      12      54       4      33      15      18      57       7
      33      15      18      60       7      36       6       3      48       6
      36       6      -3      48       7      36       6       9      51       4
      39       0       3      48       3      42       0       3      48      10
      42       0       3      96       3      42       0      39    1866      10
      42       0      39    1869      10      42       0      39    1872      10
      45       0       3      48      10      45       0       3      96       3
      45       0      39    1866      10      45       0      39    1869      10
      45       0      39    1872      10      48       3      96      99       3
      48       3      96     135      10      48       3      96     138      10
      51       9      12      54       4      90      33      36      93       4
      96      99     189     228       3      96      99     189     231       3
      99     102     105     144       4      99     102     132     186       4
      99     189     192     234       3     102      99      96     135       5
     102      99      96     138       5     102      99     189     228       5
     102      99     189     231       5     102     105     108     147       4
     102     132     129     183       4     105     102      99     141       6
     105     102     -99     141       7     105     102     132     186       4
     108     111     114     150       7     108     111     114     153       7
     108     111     129     183       4     111     108     105     144       4
     111     129     132     186       4     114     111     108     147       4
     114     111     129     183       4     114     117     120     156       5
     114     117     120     159       5     114     117     120     162       5
     114     117     123     165       5     114     117     123     168       5
     114     117     123     171       5     114     117     126     174       5
     114     117     126     177       5     114     117     126     180       5
     120     117     114     150       5     120     117     114     153       5
     120     117     123     165       5     120     117     123     168       5
     120     117     123     171       5     120     117     126     174       5
     120     117     126     177       5     120     117     126     180       5
     123     117     114     150       5     123     117     114     153       5
     123     117     120     156       5     123     117     120     159       5
     123     117     120     162       5     123     117     126     174       5
     123     117     126     177       5     123     117     126     180       5
     126     117     114     150       5     126     117     114     153       5
     126     117     120     156       5     126     117     120     159       5
     126     117     120     162       5     126     117     123     165       5
     126     117     123     168       5     126     117     123     171       5
     129     111     108     147       4     129     111     114     150       7
     129     111     114     153       7     132     102      99     141       6
     132     102     -99     141       7     132     102     105     144       4
     135      96      99     141      10     135      96      99     189       3
     138      96      99     141      10     138      96      99     189       3
     141      99     189     192       3     141      99     189     228      10
     141      99     189     231      10     144     105     108     147       4
     183     129     132     186       4     189     192     282     321       3
     189     192     282     324       3     192     195     198     237       4
     192     195     225     279       4     192     282     285     327       3
     195     192     189     228       5     195     192     189     231       5
     195     192     282     321       5     195     192     282     324       5
     195     198     201     240       4     195     225     222     276       4
     198     195     192     234       6     198     195    -192     234       7
     198     195     225     279       4     201     204     207     243       7
     201     204     207     246       7     201     204     222     276       4
     204     201     198     237       4     204     222     225     279       4
     207     204     201     240       4     207     204     222     276       4
     207     210     213     249       5     207     210     213     252       5
     207     210     213     255       5     207     210     216     258       5
     207     210     216     261       5     207     210     216     264       5
     207     210     219     267       5     207     210     219     270       5
     207     210     219     273       5     213     210     207     243       5
     213     210     207     246       5     213     210     216     258       5
     213     210     216     261       5     213     210     216     264       5
     213     210     219     267       5     213     210     219     270       5
     213     210     219     273       5     216     210     207     243       5
     216     210     207     246       5     216     210     213     249       5
     216     210     213     252       5     216     210     213     255       5
     216     210     219     267       5     216     210     219     270       5
     216     210     219     273       5     219     210     207     243       5
     219     210     207     246       5     219     210     213     249       5
     219     210     213     252       5     219     210     213     255       5
     219     210     216     258       5     219     210     216     261       5
     219     210     216     264       5     222     204     201     240       4
     222     204     207     243       7     222     204     207     246       7
     225     195     192     234       6     225     195    -192     234       7
     225     195     198     237       4     228     189     192     234      10
     228     189     192     282       3     231     189     192     234      10
     231     189     192     282       3     234     192     282     285       3
     234     192     282     321      10     234     192     282     324      10
     237     198     201     240       4     276     222     225     279       4
     282     285     375     414       3     282     285     375     417       3
     285     288     291     330       4     285     288     318     372       4
     285     375     378     420       3     288     285     282     321       5
     288     285     282     324       5     288     285     375     414       5
     288     285     375     417       5     288     291     294     333       4
     288     318     315     369       4     291     288     285     327       6
     291     288    -285     327       7     291     288     318     372       4
     294     297     300     336       7     294     297     300     339       7
     294     297     315     369       4     297     294     291     330       4
     297     315     318     372       4     300     297     294     333       4
     300     297     315     369       4     300     303     306     342       5
     300     303     306     345       5     300     303     306     348       5
     300     303     309     351       5     300     303     309     354       5
     300     303     309     357       5     300     303     312     360       5
     300     303     312     363       5     300     303     312     366       5
     306     303     300     336       5     306     303     300     339       5
     306     303     309     351       5     306     303     309     354       5
     306     303     309     357       5     306     303     312     360       5
     306     303     312     363       5     306     303     312     366       5
     309     303     300     336       5     309     303     300     339       5
     309     303     306     342       5     309     303     306     345       5
     309     303     306     348       5     309     303     312     360       5
     309     303     312     363       5     309     303     312     366       5
     312     303     300     336       5     312     303     300     339       5
     312     303     306     342       5     312     303     306     345       5
     312     303     306     348       5     312     303     309     351       5
     312     303     309     354       5     312     303     309     357       5
     315     297     294     333       4     315     297     300     336       7
     315     297     300     339       7     318     288     285     327       6
     318     288    -285     327       7     318     288     291     330       4
     321     282     285     327      10     321     282     285     375       3
     324     282     285     327      10     324     282     285     375       3
     327     285     375     378       3     327     285     375     414      10
     327     285     375     417      10     330     291     294     333       4
     369     315     318     372       4     375     378     468     507       3
     375     378     468     510       3     378     381     384     423       4
     378     381     411     465       4     378     468     471     513       3
     381     378     375     414       5     381     378     375     417       5
     381     378     468     507       5     381     378     468     510       5
     381     384     387     426       4     381     411     408     462       4
     384     381     378     420       6     384     381    -378     420       7
     384     381     411     465       4     387     390     393     429       7
     387     390     393     432       7     387     390     408     462       4
     390     387     384     423       4     390     408     411     465       4
     393     390     387     426       4     393     390     408     462       4
     393     396     399     435       5     393     396     399     438       5
     393     396     399     441       5     393     396     402     444       5
     393     396     402     447       5     393     396     402     450       5
     393     396     405     453       5     393     396     405     456       5
     393     396     405     459       5     399     396     393     429       5
     399     396     393     432       5     399     396     402     444       5
     399     396     402     447       5     399     396     402     450       5
     399     396     405     453       5     399     396     405     456       5
     399     396     405     459       5     402     396     393     429       5
     402     396     393     432       5     402     396     399     435       5
     402     396     399     438       5     402     396     399     441       5
     402     396     405     453       5     402     396     405     456       5
     402     396     405     459       5     405     396     393     429       5
     405     396     393     432       5     405     396     399     435       5
     405     396     399     438       5     405     396     399     441       5
     405     396     402     444       5     405     396     402     447       5
     405     396     402     450       5     408     390     387     426       4
     408     390     393     429       7     408     390     393     432       7
     411     381     378     420       6     411     381    -378     420       7
     411     381     384     423       4     414     375     378     420      10
     414     375     378     468       3     417     375     378     420      10
     417     375     378     468       3     420     378     468     471       3
     420     378     468     507      10     420     378     468     510      10
     423     384     387     426       4     462     408     411     465       4
     468     471     561     600       3     468     471     561     603       3
     471     474     477     516       4     471     474     504     558       4
     471     561     564     606       3     474     471     468     507       5
     474     471     468     510       5     474     471     561     600       5
     474     471     561     603       5     474     477     480     519       4
     474     504     501     555       4     477     474     471     513       6
     477     474    -471     513       7     477     474     504     558       4
     480     483     486     522       7     480     483     486     525       7
     480     483     501     555       4     483     480     477     516       4
     483     501     504     558       4     486     483     480     519       4
     486     483     501     555       4     486     489     492     528       5
     486     489     492     531       5     486     489     492     534       5
     486     489     495     537       5     486     489     495     540       5
     486     489     495     543       5     486     489     498     546       5
     486     489     498     549       5     486     489     498     552       5
     492     489     486     522       5     492     489     486     525       5
     492     489     495     537       5     492     489     495     540       5
     492     489     495     543       5     492     489     498     546       5
     492     489     498     549       5     492     489     498     552       5
     495     489     486     522       5     495     489     486     525       5
     495     489     492     528       5     495     489     492     531       5
     495     489     492     534       5     495     489     498     546       5
     495     489     498     549       5     495     489     498     552       5
     498     489     486     522       5     498     489     486     525       5
     498     489     492     528       5     498     489     492     531       5
     498     489     492     534       5     498     489     495     537       5
     498     489     495     540       5     498     489     495     543       5
     501     483     480     519       4     501     483     486     522       7
     501     483     486     525       7     504     474     471     513       6
     504     474    -471     513       7     504     474     477     516       4
     507     468     471     513      10     507     468     471     561       3
     510     468     471     513      10     510     468     471     561       3
     513     471     561     564       3     513     471     561     600      10
     513     471     561     603      10     516     477     480     519       4
     555     501     504     558       4     561     564     654     693       3
     561     564     654     696       3     564     567     570     609       4
     564     567     597     651       4     564     654     657     699       3
     567     564     561     600       5     567     564     561     603       5
     567     564     654     693       5     567     564     654     696       5
     567     570     573     612       4     567     597     594     648       4
     570     567     564     606       6     570     567    -564     606       7
     570     567     597     651       4     573     576     579     615       7
     573     576     579     618       7     573     576     594     648       4
     576     573     570     609       4     576     594     597     651       4
     579     576     573     612       4     579     576     594     648       4
     579     582     585     621       5     579     582     585     624       5
     579     582     585     627       5     579     582     588     630       5
     579     582     588     633       5     579     582     588     636       5
     579     582     591     639       5     579     582     591     642       5
     579     582     591     645       5     585     582     579     615       5
     585     582     579     618       5     585     582     588     630       5
     585     582     588     633       5     585     582     588     636       5
     585     582     591     639       5     585     582     591     642       5
     585     582     591     645       5     588     582     579     615       5
     588     582     579     618       5     588     582     585     621       5
     588     582     585     624       5     588     582     585     627       5
     588     582     591     639       5     588     582     591     642       5
     588     582     591     645       5     591     582     579     615       5
     591     582     579     618       5     591     582     585     621       5
     591     582     585     624       5     591     582     585     627       5
     591     582     588     630       5     591     582     588     633       5
     591     582     588     636       5     594     576     573     612       4
     594     576     579     615       7     594     576     579     618       7
     597     567     564     606       6     597     567    -564     606       7
     597     567     570     609       4     600     561     564     606      10
     600     561     564     654       3     603     561     564     606      10
     603     561     564     654       3     606     564     654     657       3
     606     564     654     693      10     606     564     654     696      10
     609     570     573     612       4     648     594     597     651       4
     654     657     747     786       3     654     657     747     789       3
     657     660     663     702       4     657     660     690     744       4
     657     747     750     792       3     660     657     654     693       5
     660     657     654     696       5     660     657     747     786       5
     660     657     747     789       5     660     663     666     705       4
     660     690     687     741       4     663     660     657     699       6
     663     660    -657     699       7     663     660     690     744       4
     666     669     672     708       7     666     669     672     711       7
     666     669     687     741       4     669     666     663     702       4
     669     687     690     744       4     672     669     666     705       4
     672     669     687     741       4     672     675     678     714       5
     672     675     678     717       5     672     675     678     720       5
     672     675     681     723       5     672     675     681     726       5
     672     675     681     729       5     672     675     684     732       5
     672     675     684     735       5     672     675     684     738       5
     678     675     672     708       5     678     675     672     711       5
     678     675     681     723       5     678     675     681     726       5
     678     675     681     729       5     678     675     684     732       5
     678     675     684     735       5     678     675     684     738       5
     681     675     672     708       5     681     675     672     711       5
     681     675     678     714       5     681     675     678     717       5
     681     675     678     720       5     681     675     684     732       5
     681     675     684     735       5     681     675     684     738       5
     684     675     672     708       5     684     675     672     711       5
     684     675     678     714       5     684     675     678     717       5
     684     675     678     720       5     684     675     681     723       5
     684     675     681     726       5     684     675     681     729       5
     687     669     666     705       4     687     669     672     708       7
     687     669     672     711       7     690     660     657     699       6
     690     660    -657     699       7     690     660     663     702       4
     693     654     657     699      10     693     654     657     747       3
     696     654     657     699      10     696     654     657     747       3
     699     657     747     750       3     699     657     747     786      10
     699     657     747     789      10     702     663     666     705       4
     741     687     690     744       4     747     750     840     879       3
     747     750     840     882       3     750     753     756     795       4
     750     753     783     837       4     750     840     843     885       3
     753     750     747     786       5     753     750     747     789       5
     753     750     840     879       5     753     750     840     882       5
     753     756     759     798       4     753     783     780     834       4
     756     753     750     792       6     756     753    -750     792       7
     756     753     783     837       4     759     762     765     801       7
     759     762     765     804       7     759     762     780     834       4
     762     759     756     795       4     762     780     783     837       4
     765     762     759     798       4     765     762     780     834       4
     765     768     771     807       5     765     768     771     810       5
     765     768     771     813       5     765     768     774     816       5
     765     768     774     819       5     765     768     774     822       5
     765     768     777     825       5     765     768     777     828       5
     765     768     777     831       5     771     768     765     801       5
     771     768     765     804       5     771     768     774     816       5
     771     768     774     819       5     771     768     774     822       5
     771     768     777     825       5     771     768     777     828       5
     771     768     777     831       5     774     768     765     801       5
     774     768     765     804       5     774     768     771     807       5
     774     768     771     810       5     774     768     771     813       5
     774     768     777     825       5     774     768     777     828       5
     774     768     777     831       5     777     768     765     801       5
     777     768     765     804       5     777     768     771     807       5
     777     768     771     810       5     777     768     771     813       5
     777     768     774     816       5     777     768     774     819       5
     777     768     774     822       5     780     762     759     798       4
     780     762     765     801       7     780     762     765     804       7
     783     753     750     792       6     783     753    -750     792       7
     783     753     756     795       4     786     747     750     792      10
     786     747     750     840       3     789     747     750     792      10
     789     747     750     840       3     792     750     840     843       3
     792     750     840     879      10     792     750     840     882      10
     795     756     759     798       4     834     780     783     837       4
     840     843     933     972       3     840     843     933     975       3
     843     846     849     888       4     843     846     876     930       4
     843     933     936     978       3     846     843     840     879       5
     846     843     840     882       5     846     843     933     972       5
     846     843     933     975       5     846     849     852     891       4
     846     876     873     927       4     849     846     843     885       6
     849     846    -843     885       7     849     846     876     930       4
     852     855     858     894       7     852     855     858     897       7
     852     855     873     927       4     855     852     849     888       4
     855     873     876     930       4     858     855     852     891       4
     858     855     873     927       4     858     861     864     900       5
     858     861     864     903       5     858     861     864     906       5
     858     861     867     909       5     858     861     867     912       5
     858     861     867     915       5     858     861     870     918       5
     858     861     870     921       5     858     861     870     924       5
     864     861     858     894       5     864     861     858     897       5
     864     861     867     909       5     864     861     867     912       5
     864     861     867     915       5     864     861     870     918       5
     864     861     870     921       5     864     861     870     924       5
     867     861     858     894       5     867     861     858     897       5
     867     861     864     900       5     867     861     864     903       5
     867     861     864     906       5     867     861     870     918       5
     867     861     870     921       5     867     861     870     924       5
     870     861     858     894       5     870     861     858     897       5
     870     861     864     900       5     870     861     864     903       5
     870     861     864     906       5     870     861     867     909       5
     870     861     867     912       5     870     861     867     915       5
     873     855     852     891       4     873     855     858     894       7
     873     855     858     897       7     876     846     843     885       6
     876     846    -843     885       7     876     846     849     888       4
     879     840     843     885      10     879     840     843     933       3
     882     840     843     885      10     882     840     843     933       3
     885     843     933     936       3     885     843     933     972      10
     885     843     933     975      10     888     849     852     891       4
     927     873     876     930       4     933     936    1026    1065       3
     933     936    1026    1068       3     936     939     942     981       4
     936     939     969    1023       4     936    1026    1029    1071       3
     939     936     933     972       5     939     936     933     975       5
     939     936    1026    1065       5     939     936    1026    1068       5
     939     942     945     984       4     939     969     966    1020       4
     942     939     936     978       6     942     939    -936     978       7
     942     939     969    1023       4     945     948     951     987       7
     945     948     951     990       7     945     948     966    1020       4
     948     945     942     981       4     948     966     969    1023       4
     951     948     945     984       4     951     948     966    1020       4
     951     954     957     993       5     951     954     957     996       5
     951     954     957     999       5     951     954     960    1002       5
     951     954     960    1005       5     951     954     960    1008       5
     951     954     963    1011       5     951     954     963    1014       5
     951     954     963    1017       5     957     954     951     987       5
     957     954     951     990       5     957     954     960    1002       5
     957     954     960    1005       5     957     954     960    1008       5
     957     954     963    1011       5     957     954     963    1014       5
     957     954     963    1017       5     960     954     951     987       5
     960     954     951     990       5     960     954     957     993       5
     960     954     957     996       5     960     954     957     999       5
     960     954     963    1011       5     960     954     963    1014       5
     960     954     963    1017       5     963     954     951     987       5
     963     954     951     990       5     963     954     957     993       5
     963     954     957     996       5     963     954     957     999       5
     963     954     960    1002       5     963     954     960    1005       5
     963     954     960    1008       5     966     948     945     984       4
     966     948     951     987       7     966     948     951     990       7
     969     939     936     978       6     969     939    -936     978       7
     969     939     942     981       4     972     933     936     978      10
     972     933     936    1026       3     975     933     936     978      10
     975     933     936    1026       3     978     936    1026    1029       3
     978     936    1026    1065      10     978     936    1026    1068      10
     981     942     945     984       4    1020     966     969    1023       4
    1026    1029    1119    1158       3    1026    1029    1119    1161       3
    1029    1032    1035    1074       4    1029    1032    1062    1116       4
    1029    1119    1122    1164       3    1032    1029    1026    1065       5
    1032    1029    1026    1068       5    1032    1029    1119    1158       5
    1032    1029    1119    1161       5    1032    1035    1038    1077       4
    1032    1062    1059    1113       4    1035    1032    1029    1071       6
    1035    1032   -1029    1071       7    1035    1032    1062    1116       4
    1038    1041    1044    1080       7    1038    1041    1044    1083       7
    1038    1041    1059    1113       4    1041    1038    1035    1074       4
    1041    1059    1062    1116       4    1044    1041    1038    1077       4
    1044    1041    1059    1113       4    1044    1047    1050    1086       5
    1044    1047    1050    1089       5    1044    1047    1050    1092       5
    1044    1047    1053    1095       5    1044    1047    1053    1098       5
    1044    1047    1053    1101       5    1044    1047    1056    1104       5
    1044    1047    1056    1107       5    1044    1047    1056    1110       5
    1050    1047    1044    1080       5    1050    1047    1044    1083       5
    1050    1047    1053    1095       5    1050    1047    1053    1098       5
    1050    1047    1053    1101       5    1050    1047    1056    1104       5
    1050    1047    1056    1107       5    1050    1047    1056    1110       5
    1053    1047    1044    1080       5    1053    1047    1044    1083       5
    1053    1047    1050    1086       5    1053    1047    1050    1089       5
    1053    1047    1050    1092       5    1053    1047    1056    1104       5
    1053    1047    1056    1107       5    1053    1047    1056    1110       5
    1056    1047    1044    1080       5    1056    1047    1044    1083       5
    1056    1047    1050    1086       5    1056    1047    1050    1089       5
    1056    1047    1050    1092       5    1056    1047    1053    1095       5
    1056    1047    1053    1098       5    1056    1047    1053    1101       5
    1059    1041    1038    1077       4    1059    1041    1044    1080       7
    1059    1041    1044    1083       7    1062    1032    1029    1071       6
    1062    1032   -1029    1071       7    1062    1032    1035    1074       4
    1065    1026    1029    1071      10    1065    1026    1029    1119       3
    1068    1026    1029    1071      10    1068    1026    1029    1119       3
    1071    1029    1119    1122       3    1071    1029    1119    1158      10
    1071    1029    1119    1161      10    1074    1035    1038    1077       4
    1113    1059    1062    1116       4    1119    1122    1212    1251       3
    1119    1122    1212    1254       3    1122    1125    1128    1167       4
    1122    1125    1155    1209       4    1122    1212    1215    1257       3
    1125    1122    1119    1158       5    1125    1122    1119    1161       5
    1125    1122    1212    1251       5    1125    1122    1212    1254       5
    1125    1128    1131    1170       4    1125    1155    1152    1206       4
    1128    1125    1122    1164       6    1128    1125   -1122    1164       7
    1128    1125    1155    1209       4    1131    1134    1137    1173       7
    1131    1134    1137    1176       7    1131    1134    1152    1206       4
    1134    1131    1128    1167       4    1134    1152    1155    1209       4
    1137    1134    1131    1170       4    1137    1134    1152    1206       4
    1137    1140    1143    1179       5    1137    1140    1143    1182       5
    1137    1140    1143    1185       5    1137    1140    1146    1188       5
    1137    1140    1146    1191       5    1137    1140    1146    1194       5
    1137    1140    1149    1197       5    1137    1140    1149    1200       5
    1137    1140    1149    1203       5    1143    1140    1137    1173       5
    1143    1140    1137    1176       5    1143    1140    1146    1188       5
    1143    1140    1146    1191       5    1143    1140    1146    1194       5
    1143    1140    1149    1197       5    1143    1140    1149    1200       5
    1143    1140    1149    1203       5    1146    1140    1137    1173       5
    1146    1140    1137    1176       5    1146    1140    1143    1179       5
    1146    1140    1143    1182       5    1146    1140    1143    1185       5
    1146    1140    1149    1197       5    1146    1140    1149    1200       5
    1146    1140    1149    1203       5    1149    1140    1137    1173       5
    1149    1140    1137    1176       5    1149    1140    1143    1179       5
    1149    1140    1143    1182       5    1149    1140    1143    1185       5
    1149    1140    1146    1188       5    1149    1140    1146    1191       5
    1149    1140    1146    1194       5    1152    1134    1131    1170       4
    1152    1134    1137    1173       7    1152    1134    1137    1176       7
    1155    1125    1122    1164       6    1155    1125   -1122    1164       7
    1155    1125    1128    1167       4    1158    1119    1122    1164      10
    1158    1119    1122    1212       3    1161    1119    1122    1164      10
    1161    1119    1122    1212       3    1164    1122    1212    1215       3
    1164    1122    1212    1251      10    1164    1122    1212    1254      10
    1167    1128    1131    1170       4    1206    1152    1155    1209       4
    1212    1215    1305    1344       3    1212    1215    1305    1347       3
    1215    1218    1221    1260       4    1215    1218    1248    1302       4
    1215    1305    1308    1350       3    1218    1215    1212    1251       5
    1218    1215    1212    1254       5    1218    1215    1305    1344       5
    1218    1215    1305    1347       5    1218    1221    1224    1263       4
    1218    1248    1245    1299       4    1221    1218    1215    1257       6
    1221    1218   -1215    1257       7    1221    1218    1248    1302       4
    1224    1227    1230    1266       7    1224    1227    1230    1269       7
    1224    1227    1245    1299       4    1227    1224    1221    1260       4
    1227    1245    1248    1302       4    1230    1227    1224    1263       4
    1230    1227    1245    1299       4    1230    1233    1236    1272       5
    1230    1233    1236    1275       5    1230    1233    1236    1278       5
    1230    1233    1239    1281       5    1230    1233    1239    1284       5
    1230    1233    1239    1287       5    1230    1233    1242    1290       5
    1230    1233    1242    1293       5    1230    1233    1242    1296       5
    1236    1233    1230    1266       5    1236    1233    1230    1269       5
    1236    1233    1239    1281       5    1236    1233    1239    1284       5
    1236    1233    1239    1287       5    1236    1233    1242    1290       5
    1236    1233    1242    1293       5    1236    1233    1242    1296       5
    1239    1233    1230    1266       5    1239    1233    1230    1269       5
    1239    1233    1236    1272       5    1239    1233    1236    1275       5
    1239    1233    1236    1278       5    1239    1233    1242    1290       5
    1239    1233    1242    1293       5    1239    1233    1242    1296       5
    1242    1233    1230    1266       5    1242    1233    1230    1269       5
    1242    1233    1236    1272       5    1242    1233    1236    1275       5
    1242    1233    1236    1278       5    1242    1233    1239    1281       5
    1242    1233    1239    1284       5    1242    1233    1239    1287       5
    1245    1227    1224    1263       4    1245    1227    1230    1266       7
    1245    1227    1230    1269       7    1248    1218    1215    1257       6
    1248    1218   -1215    1257       7    1248    1218    1221    1260       4
    1251    1212    1215    1257      10    1251    1212    1215    1305       3
    1254    1212    1215    1257      10    1254    1212    1215    1305       3
    1257    1215    1305    1308       3    1257    1215    1305    1344      10
    1257    1215    1305    1347      10    1260    1221    1224    1263       4
    1299    1245    1248    1302       4    1305    1308    1398    1437       3
    1305    1308    1398    1440       3    1308    1311    1314    1353       4
    1308    1311    1341    1395       4    1308    1398    1401    1443       3
    1311    1308    1305    1344       5    1311    1308    1305    1347       5
    1311    1308    1398    1437       5    1311    1308    1398    1440       5
    1311    1314    1317    1356       4    1311    1341    1338    1392       4
    1314    1311    1308    1350       6    1314    1311   -1308    1350       7
    1314    1311    1341    1395       4    1317    1320    1323    1359       7
    1317    1320    1323    1362       7    1317    1320    1338    1392       4
    1320    1317    1314    1353       4    1320    1338    1341    1395       4
    1323    1320    1317    1356       4    1323    1320    1338    1392       4
    1323    1326    1329    1365       5    1323    1326    1329    1368       5
    1323    1326    1329    1371       5    1323    1326    1332    1374       5
    1323    1326    1332    1377       5    1323    1326    1332    1380       5
    1323    1326    1335    1383       5    1323    1326    1335    1386       5
    1323    1326    1335    1389       5    1329    1326    1323    1359       5
    1329    1326    1323    1362       5    1329    1326    1332    1374       5
    1329    1326    1332    1377       5    1329    1326    1332    1380       5
    1329    1326    1335    1383       5    1329    1326    1335    1386       5
    1329    1326    1335    1389       5    1332    1326    1323    1359       5
    1332    1326    1323    1362       5    1332    1326    1329    1365       5
    1332    1326    1329    1368       5    1332    1326    1329    1371       5
    1332    1326    1335    1383       5    1332    1326    1335    1386       5
    1332    1326    1335    1389       5    1335    1326    1323    1359       5
    1335    1326    1323    1362       5    1335    1326    1329    1365       5
    1335    1326    1329    1368       5    1335    1326    1329    1371       5
    1335    1326    1332    1374       5    1335    1326    1332    1377       5
    1335    1326    1332    1380       5    1338    1320    1317    1356       4
    1338    1320    1323    1359       7    1338    1320    1323    1362       7
    1341    1311    1308    1350       6    1341    1311   -1308    1350       7
    1341    1311    1314    1353       4    1344    1305    1308    1350      10
    1344    1305    1308    1398       3    1347    1305    1308    1350      10
    1347    1305    1308    1398       3    1350    1308    1398    1401       3
    1350    1308    1398    1437      10    1350    1308    1398    1440      10
    1353    1314    1317    1356       4    1392    1338    1341    1395       4
    1398    1401    1491    1530       3    1398    1401    1491    1533       3
    1401    1404    1407    1446       4    1401    1404    1434    1488       4
    1401    1491    1494    1536       3    1404    1401    1398    1437       5
    1404    1401    1398    1440       5    1404    1401    1491    1530       5
    1404    1401    1491    1533       5    1404    1407    1410    1449       4
    1404    1434    1431    1485       4    1407    1404    1401    1443       6
    1407    1404   -1401    1443       7    1407    1404    1434    1488       4
    1410    1413    1416    1452       7    1410    1413    1416    1455       7
    1410    1413    1431    1485       4    1413    1410    1407    1446       4
    1413    1431    1434    1488       4    1416    1413    1410    1449       4
    1416    1413    1431    1485       4    1416    1419    1422    1458       5
    1416    1419    1422    1461       5    1416    1419    1422    1464       5
    1416    1419    1425    1467       5    1416    1419    1425    1470       5
    1416    1419    1425    1473       5    1416    1419    1428    1476       5
    1416    1419    1428    1479       5    1416    1419    1428    1482       5
    1422    1419    1416    1452       5    1422    1419    1416    1455       5
    1422    1419    1425    1467       5    1422    1419    1425    1470       5
    1422    1419    1425    1473       5    1422    1419    1428    1476       5
    1422    1419    1428    1479       5    1422    1419    1428    1482       5
    1425    1419    1416    1452       5    1425    1419    1416    1455       5
    1425    1419    1422    1458       5    1425    1419    1422    1461       5
    1425    1419    1422    1464       5    1425    1419    1428    1476       5
    1425    1419    1428    1479       5    1425    1419    1428    1482       5
    1428    1419    1416    1452       5    1428    1419    1416    1455       5
    1428    1419    1422    1458       5    1428    1419    1422    1461       5
    1428    1419    1422    1464       5    1428    1419    1425    1467       5
    1428    1419    1425    1470       5    1428    1419    1425    1473       5
    1431    1413    1410    1449       4    1431    1413    1416    1452       7
    1431    1413    1416    1455       7    1434    1404    1401    1443       6
    1434    1404   -1401    1443       7    1434    1404    1407    1446       4
    1437    1398    1401    1443      10    1437    1398    1401    1491       3
    1440    1398    1401    1443      10    1440    1398    1401    1491       3
    1443    1401    1491    1494       3    1443    1401    1491    1530      10
    1443    1401    1491    1533      10    1446    1407    1410    1449       4
    1485    1431    1434    1488       4    1491    1494    1584    1623       3
    1491    1494    1584    1626       3    1494    1497    1500    1539       4
    1494    1497    1527    1581       4    1494    1584    1587    1629       3
    1497    1494    1491    1530       5    1497    1494    1491    1533       5
    1497    1494    1584    1623       5    1497    1494    1584    1626       5
    1497    1500    1503    1542       4    1497    1527    1524    1578       4
    1500    1497    1494    1536       6    1500    1497   -1494    1536       7
    1500    1497    1527    1581       4    1503    1506    1509    1545       7
    1503    1506    1509    1548       7    1503    1506    1524    1578       4
    1506    1503    1500    1539       4    1506    1524    1527    1581       4
    1509    1506    1503    1542       4    1509    1506    1524    1578       4
    1509    1512    1515    1551       5    1509    1512    1515    1554       5
    1509    1512    1515    1557       5    1509    1512    1518    1560       5
    1509    1512    1518    1563       5    1509    1512    1518    1566       5
    1509    1512    1521    1569       5    1509    1512    1521    1572       5
    1509    1512    1521    1575       5    1515    1512    1509    1545       5
    1515    1512    1509    1548       5    1515    1512    1518    1560       5
    1515    1512    1518    1563       5    1515    1512    1518    1566       5
    1515    1512    1521    1569       5    1515    1512    1521    1572       5
    1515    1512    1521    1575       5    1518    1512    1509    1545       5
    1518    1512    1509    1548       5    1518    1512    1515    1551       5
    1518    1512    1515    1554       5    1518    1512    1515    1557       5
    1518    1512    1521    1569       5    1518    1512    1521    1572       5
    1518    1512    1521    1575       5    1521    1512    1509    1545       5
    1521    1512    1509    1548       5    1521    1512    1515    1551       5
    1521    1512    1515    1554       5    1521    1512    1515    1557       5
    1521    1512    1518    1560       5    1521    1512    1518    1563       5
    1521    1512    1518    1566       5    1524    1506    1503    1542       4
    1524    1506    1509    1545       7    1524    1506    1509    1548       7
    1527    1497    1494    1536       6    1527    1497   -1494    1536       7
    1527    1497    1500    1539       4    1530    1491    1494    1536      10
    1530    1491    1494    1584       3    1533    1491    1494    1536      10
    1533    1491    1494    1584       3    1536    1494    1584    1587       3
    1536    1494    1584    1623      10    1536    1494    1584    1626      10
    1539    1500    1503    1542       4    1578    1524    1527    1581       4
    1584    1587    1677    1716       3    1584    1587    1677    1719       3
    1587    1590    1593    1632       4    1587    1590    1620    1674       4
    1587    1677    1680    1722       3    1590    1587    1584    1623       5
    1590    1587    1584    1626       5    1590    1587    1677    1716       5
    1590    1587    1677    1719       5    1590    1593    1596    1635       4
    1590    1620    1617    1671       4    1593    1590    1587    1629       6
    1593    1590   -1587    1629       7    1593    1590    1620    1674       4
    1596    1599    1602    1638       7    1596    1599    1602    1641       7
    1596    1599    1617    1671       4    1599    1596    1593    1632       4
    1599    1617    1620    1674       4    1602    1599    1596    1635       4
    1602    1599    1617    1671       4    1602    1605    1608    1644       5
    1602    1605    1608    1647       5    1602    1605    1608    1650       5
    1602    1605    1611    1653       5    1602    1605    1611    1656       5
    1602    1605    1611    1659       5    1602    1605    1614    1662       5
    1602    1605    1614    1665       5    1602    1605    1614    1668       5
    1608    1605    1602    1638       5    1608    1605    1602    1641       5
    1608    1605    1611    1653       5    1608    1605    1611    1656       5
    1608    1605    1611    1659       5    1608    1605    1614    1662       5
    1608    1605    1614    1665       5    1608    1605    1614    1668       5
    1611    1605    1602    1638       5    1611    1605    1602    1641       5
    1611    1605    1608    1644       5    1611    1605    1608    1647       5
    1611    1605    1608    1650       5    1611    1605    1614    1662       5
    1611    1605    1614    1665       5    1611    1605    1614    1668       5
    1614    1605    1602    1638       5    1614    1605    1602    1641       5
    1614    1605    1608    1644       5    1614    1605    1608    1647       5
    1614    1605    1608    1650       5    1614    1605    1611    1653       5
    1614    1605    1611    1656       5    1614    1605    1611    1659       5
    1617    1599    1596    1635       4    1617    1599    1602    1638       7
    1617    1599    1602    1641       7    1620    1590    1587    1629       6
    1620    1590   -1587    1629       7    1620    1590    1593    1632       4
    1623    1584    1587    1629      10    1623    1584    1587    1677       3
    1626    1584    1587    1629      10    1626    1584    1587    1677       3
    1629    1587    1677    1680       3    1629    1587    1677    1716      10
    1629    1587    1677    1719      10    1632    1593    1596    1635       4
    1671    1617    1620    1674       4    1677    1680    1770    1809       3
    1677    1680    1770    1812       3    1680    1683    1686    1725       4
    1680    1683    1713    1767       4    1680    1770    1773    1818       3
    1683    1680    1677    1716       5    1683    1680    1677    1719       5
    1683    1680    1770    1809       5    1683    1680    1770    1812       5
    1683    1686    1689    1728       4    1683    1713    1710    1764       4
    1686    1683    1680    1722       6    1686    1683   -1680    1722       7
    1686    1683    1713    1767       4    1689    1692    1695    1731       7
    1689    1692    1695    1734       7    1689    1692    1710    1764       4
    1692    1689    1686    1725       4    1692    1710    1713    1767       4
    1695    1692    1689    1728       4    1695    1692    1710    1764       4
    1695    1698    1701    1737       5    1695    1698    1701    1740       5
    1695    1698    1701    1743       5    1695    1698    1704    1746       5
    1695    1698    1704    1749       5    1695    1698    1704    1752       5
    1695    1698    1707    1755       5    1695    1698    1707    1758       5
    1695    1698    1707    1761       5    1701    1698    1695    1731       5
    1701    1698    1695    1734       5    1701    1698    1704    1746       5
    1701    1698    1704    1749       5    1701    1698    1704    1752       5
    1701    1698    1707    1755       5    1701    1698    1707    1758       5
    1701    1698    1707    1761       5    1704    1698    1695    1731       5
    1704    1698    1695    1734       5    1704    1698    1701    1737       5
    1704    1698    1701    1740       5    1704    1698    1701    1743       5
    1704    1698    1707    1755       5    1704    1698    1707    1758       5
    1704    1698    1707    1761       5    1707    1698    1695    1731       5
    1707    1698    1695    1734       5    1707    1698    1701    1737       5
    1707    1698    1701    1740       5    1707    1698    1701    1743       5
    1707    1698    1704    1746       5    1707    1698    1704    1749       5
    1707    1698    1704    1752       5    1710    1692    1689    1728       4
    1710    1692    1695    1731       7    1710    1692    1695    1734       7
    1713    1683    1680    1722       6    1713    1683   -1680    1722       7
    1713    1683    1686    1725       4    1716    1677    1680    1722      10
    1716    1677    1680    1770       3    1719    1677    1680    1722      10
    1719    1677    1680    1770       3    1722    1680    1770    1773       3
    1722    1680    1770    1809      10    1722    1680    1770    1812      10
    1725    1686    1689    1728       4    1764    1710    1713    1767       4
    1770    1773    1815    1875       3    1770    1773    1815    1878       3
    1770    1773    1815    1881       3    1773    1776    1779    1821       4
    1773    1776    1806    1863       4    1776    1773    1770    1809       5
    1776    1773    1770    1812       5    1776    1773    1815    1875       5
    1776    1773    1815    1878       5    1776    1773    1815    1881       5
    1776    1779    1782    1824       4    1776    1806    1803    1860       4
    1779    1776    1773    1818       6    1779    1776   -1773    1818       7
    1779    1776    1806    1863       4    1782    1785    1788    1827       7
    1782    1785    1788    1830       7    1782    1785    1803    1860       4
    1785    1782    1779    1821       4    1785    1803    1806    1863       4
    1788    1785    1782    1824       4    1788    1785    1803    1860       4
    1788    1791    1794    1833       5    1788    1791    1794    1836       5
    1788    1791    1794    1839       5    1788    1791    1797    1842       5
    1788    1791    1797    1845       5    1788    1791    1797    1848       5
    1788    1791    1800    1851       5    1788    1791    1800    1854       5
    1788    1791    1800    1857       5    1794    1791    1788    1827       5
    1794    1791    1788    1830       5    1794    1791    1797    1842       5
    1794    1791    1797    1845       5    1794    1791    1797    1848       5
    1794    1791    1800    1851       5    1794    1791    1800    1854       5
    1794    1791    1800    1857       5    1797    1791    1788    1827       5
    1797    1791    1788    1830       5    1797    1791    1794    1833       5
    1797    1791    1794    1836       5    1797    1791    1794    1839       5
    1797    1791    1800    1851       5    1797    1791    1800    1854       5
    1797    1791    1800    1857       5    1800    1791    1788    1827       5
    1800    1791    1788    1830       5    1800    1791    1794    1833       5
    1800    1791    1794    1836       5    1800    1791    1794    1839       5
    1800    1791    1797    1842       5    1800    1791    1797    1845       5
    1800    1791    1797    1848       5    1803    1785    1782    1824       4
    1803    1785    1788    1827       7    1803    1785    1788    1830       7
    1806    1776    1773    1818       6    1806    1776   -1773    1818       7
    1806    1776    1779    1821       4    1809    1770    1773    1815       3
    1809    1770    1773    1818      10    1812    1770    1773    1815       3
    1812    1770    1773    1818      10    1818    1773    1815    1875      10
    1818    1773    1815    1878      10    1818    1773    1815    1881      10
    1821    1779    1782    1824       4    1860    1803    1806    1863       4
       6      12      -9     -51      11       9      15     -12     -54      11
      15      36     -33     -90      11       6      33     -36     -93      11
     102     108    -105    -144      11     105     111    -108    -147      11
     111     132    -129    -183      11     102     129    -132    -186      11
     195     201    -198    -237      11     198     204    -201    -240      11
     204     225    -222    -276      11     195     222    -225    -279      11
     288     294    -291    -330      11     291     297    -294    -333      11
     297     318    -315    -369      11     288     315    -318    -372      11
     381     387    -384    -423      11     384     390    -387    -426      11
     390     411    -408    -462      11     381     408    -411    -465      11
     474     480    -477    -516      11     477     483    -480    -519      11
     483     504    -501    -555      11     474     501    -504    -558      11
     567     573    -570    -609      11     570     576    -573    -612      11
     576     597    -594    -648      11     567     594    -597    -651      11
     660     666    -663    -702      11     663     669    -666    -705      11
     669     690    -687    -741      11     660     687    -690    -744      11
     753     759    -756    -795      11     756     762    -759    -798      11
     762     783    -780    -834      11     753     780    -783    -837      11
     846     852    -849    -888      11     849     855    -852    -891      11
     855     876    -873    -927      11     846     873    -876    -930      11
     939     945    -942    -981      11     942     948    -945    -984      11
     948     969    -966   -1020      11     939     966    -969   -1023      11
    1032    1038   -1035   -1074      11    1035    1041   -1038   -1077      11
    1041    1062   -1059   -1113      11    1032    1059   -1062   -1116      11
    1125    1131   -1128   -1167      11    1128    1134   -1131   -1170      11
    1134    1155   -1152   -1206      11    1125    1152   -1155   -1209      11
    1218    1224   -1221   -1260      11    1221    1227   -1224   -1263      11
    1227    1248   -1245   -1299      11    1218    1245   -1248   -1302      11
    1311    1317   -1314   -1353      11    1314    1320   -1317   -1356      11
    1320    1341   -1338   -1392      11    1311    1338   -1341   -1395      11
    1404    1410   -1407   -1446      11    1407    1413   -1410   -1449      11
    1413    1434   -1431   -1485      11    1404    1431   -1434   -1488      11
    1497    1503   -1500   -1539      11    1500    1506   -1503   -1542      11
    1506    1527   -1524   -1578      11    1497    1524   -1527   -1581      11
    1590    1596   -1593   -1632      11    1593    1599   -1596   -1635      11
    1599    1620   -1617   -1671      11    1590    1617   -1620   -1674      11
    1683    1689   -1686   -1725      11    1686    1692   -1689   -1728      11
    1692    1713   -1710   -1764      11    1683    1710   -1713   -1767      11
    1776    1782   -1779   -1821      11    1779    1785   -1782   -1824      11
    1785    1806   -1803   -1860      11    1776    1803   -1806   -1863      11
%FLAG DIHEDRALS_WITHOUT_HYDROGEN                                                
%FORMAT(10I8)                                                                   
       0       3       6       9       1       0       3       6      36       1
       0       3      96      99       2       3       6       9      12       4
       3       6      36      33       4       3      96      99     102       5
       3      96      99     189       2      39       0       3       6       5
       6       3      96      99       5       6       9      12      15       4
       6      36     -33      15       4       9       6       3      96       1
       9       6      36      33       4       9      12      15      18       4
       9      12     -15      33       4      12       9       6      36       4
      12      15      18      21       7      12      15     -33      36       4
      15      18      21      24       8      15      18     -21      24       9
      15      18      21      27       8      15      18     -21      27       9
      15      18      21      30       8      15      18     -21      30       9
      18      15      33      36       4      21      18      15      33       7
      36       6       3      96       1      39       0       3      96       2
      96      99     102     105       1      96      99     102     132       1
      96      99     189     192       2      99     102     105     108       4
      99     102     132     129       4      99     189     192     195       5
      99     189     192     282       2     102      99     189     192       5
     102     105     108     111       4     102     132    -129     111       4
     105     102      99     189       1     105     102     132     129       4
     105     108     111     114       4     105     108    -111     129       4
     108     105     102     132       4     108     111     114     117       7
     108     111    -129     132       4     111     114     117     120       8
     111     114    -117     120       9     111     114     117     123       8
     111     114    -117     123       9     111     114     117     126       8
     111     114    -117     126       9     114     111     129     132       4
     117     114     111     129       7     132     102      99     189       1
     189     192     195     198       1     189     192     195     225       1
     189     192     282     285       2     192     195     198     201       4
     192     195     225     222       4     192     282     285     288       5
     192     282     285     375       2     195     192     282     285       5
     195     198     201     204       4     195     225    -222     204       4
     198     195     192     282       1     198     195     225     222       4
     198     201     204     207       4     198     201    -204     222       4
     201     198     195     225       4     201     204     207     210       7
     201     204    -222     225       4     204     207     210     213       8
     204     207    -210     213       9     204     207     210     216       8
     204     207    -210     216       9     204     207     210     219       8
     204     207    -210     219       9     207     204     222     225       4
     210     207     204     222       7     225     195     192     282       1
     282     285     288     291       1     282     285     288     318       1
     282     285     375     378       2     285     288     291     294       4
     285     288     318     315       4     285     375     378     381       5
     285     375     378     468       2     288     285     375     378       5
     288     291     294     297       4     288     318    -315     297       4
     291     288     285     375       1     291     288     318     315       4
     291     294     297     300       4     291     294    -297     315       4
     294     291     288     318       4     294     297     300     303       7
     294     297    -315     318       4     297     300     303     306       8
     297     300    -303     306       9     297     300     303     309       8
     297     300    -303     309       9     297     300     303     312       8
     297     300    -303     312       9     300     297     315     318       4
     303     300     297     315       7     318     288     285     375       1
     375     378     381     384       1     375     378     381     411       1
     375     378     468     471       2     378     381     384     387       4
     378     381     411     408       4     378     468     471     474       5
     378     468     471     561       2     381     378     468     471       5
     381     384     387     390       4     381     411    -408     390       4
     384     381     378     468       1     384     381     411     408       4
     384     387     390     393       4     384     387    -390     408       4
     387     384     381     411       4     387     390     393     396       7
     387     390    -408     411       4     390     393     396     399       8
     390     393    -396     399       9     390     393     396     402       8
     390     393    -396     402       9     390     393     396     405       8
     390     393    -396     405       9     393     390     408     411       4
     396     393     390     408       7     411     381     378     468       1
     468     471     474     477       1     468     471     474     504       1
     468     471     561     564       2     471     474     477     480       4
     471     474     504     501       4     471     561     564     567       5
     471     561     564     654       2     474     471     561     564       5
     474     477     480     483       4     474     504    -501     483       4
     477     474     471     561       1     477     474     504     501       4
     477     480     483     486       4     477     480    -483     501       4
     480     477     474     504       4     480     483     486     489       7
     480     483    -501     504       4     483     486     489     492       8
     483     486    -489     492       9     483     486     489     495       8
     483     486    -489     495       9     483     486     489     498       8
     483     486    -489     498       9     486     483     501     504       4
     489     486     483     501       7     504     474     471     561       1
     561     564     567     570       1     561     564     567     597       1
     561     564     654     657       2     564     567     570     573       4
     564     567     597     594       4     564     654     657     660       5
     564     654     657     747       2     567     564     654     657       5
     567     570     573     576       4     567     597    -594     576       4
     570     567     564     654       1     570     567     597     594       4
     570     573     576     579       4     570     573    -576     594       4
     573     570     567     597       4     573     576     579     582       7
     573     576    -594     597       4     576     579     582     585       8
     576     579    -582     585       9     576     579     582     588       8
     576     579    -582     588       9     576     579     582     591       8
     576     579    -582     591       9     579     576     594     597       4
     582     579     576     594       7     597     567     564     654       1
     654     657     660     663       1     654     657     660     690       1
     654     657     747     750       2     657     660     663     666       4
     657     660     690     687       4     657     747     750     753       5
     657     747     750     840       2     660     657     747     750       5
     660     663     666     669       4     660     690    -687     669       4
     663     660     657     747       1     663     660     690     687       4
     663     666     669     672       4     663     666    -669     687       4
     666     663     660     690       4     666     669     672     675       7
     666     669    -687     690       4     669     672     675     678       8
     669     672    -675     678       9     669     672     675     681       8
     669     672    -675     681       9     669     672     675     684       8
     669     672    -675     684       9     672     669     687     690       4
     675     672     669     687       7     690     660     657     747       1
     747     750     753     756       1     747     750     753     783       1
     747     750     840     843       2     750     753     756     759       4
     750     753     783     780       4     750     840     843     846       5
     750     840     843     933       2     753     750     840     843       5
     753     756     759     762       4     753     783    -780     762       4
     756     753     750     840       1     756     753     783     780       4
     756     759     762     765       4     756     759    -762     780       4
     759     756     753     783       4     759     762     765     768       7
     759     762    -780     783       4     762     765     768     771       8
     762     765    -768     771       9     762     765     768     774       8
     762     765    -768     774       9     762     765     768     777       8
     762     765    -768     777       9     765     762     780     783       4
     768     765     762     780       7     783     753     750     840       1
     840     843     846     849       1     840     843     846     876       1
     840     843     933     936       2     843     846     849     852       4
     843     846     876     873       4     843     933     936     939       5
     843     933     936    1026       2     846     843     933     936       5
     846     849     852     855       4     846     876    -873     855       4
     849     846     843     933       1     849     846     876     873       4
     849     852     855     858       4     849     852    -855     873       4
     852     849     846     876       4     852     855     858     861       7
     852     855    -873     876       4     855     858     861     864       8
     855     858    -861     864       9     855     858     861     867       8
     855     858    -861     867       9     855     858     861     870       8
     855     858    -861     870       9     858     855     873     876       4
     861     858     855     873       7     876     846     843     933       1
     933     936     939     942       1     933     936     939     969       1
     933     936    1026    1029       2     936     939     942     945       4
     936     939     969     966       4     936    1026    1029    1032       5
     936    1026    1029    1119       2     939     936    1026    1029       5
     939     942     945     948       4     939     969    -966     948       4
     942     939     936    1026       1     942     939     969     966       4
     942     945     948     951       4     942     945    -948     966       4
     945     942     939     969       4     945     948     951     954       7
     945     948    -966     969       4     948     951     954     957       8
     948     951    -954     957       9     948     951     954     960       8
     948     951    -954     960       9     948     951     954     963       8
     948     951    -954     963       9     951     948     966     969       4
     954     951     948     966       7     969     939     936    1026       1
    1026    1029    1032    1035       1    1026    1029    1032    1062       1
    1026    1029    1119    1122       2    1029    1032    1035    1038       4
    1029    1032    1062    1059       4    1029    1119    1122    1125       5
    1029    1119    1122    1212       2    1032    1029    1119    1122       5
    1032    1035    1038    1041       4    1032    1062   -1059    1041       4
    1035    1032    1029    1119       1    1035    1032    1062    1059       4
    1035    1038    1041    1044       4    1035    1038   -1041    1059       4
    1038    1035    1032    1062       4    1038    1041    1044    1047       7
    1038    1041   -1059    1062       4    1041    1044    1047    1050       8
    1041    1044   -1047    1050       9    1041    1044    1047    1053       8
    1041    1044   -1047    1053       9    1041    1044    1047    1056       8
    1041    1044   -1047    1056       9    1044    1041    1059    1062       4
    1047    1044    1041    1059       7    1062    1032    1029    1119       1
    1119    1122    1125    1128       1    1119    1122    1125    1155       1
    1119    1122    1212    1215       2    1122    1125    1128    1131       4
    1122    1125    1155    1152       4    1122    1212    1215    1218       5
    1122    1212    1215    1305       2    1125    1122    1212    1215       5
    1125    1128    1131    1134       4    1125    1155   -1152    1134       4
    1128    1125    1122    1212       1    1128    1125    1155    1152       4
    1128    1131    1134    1137       4    1128    1131   -1134    1152       4
    1131    1128    1125    1155       4    1131    1134    1137    1140       7
    1131    1134   -1152    1155       4    1134    1137    1140    1143       8
    1134    1137   -1140    1143       9    1134    1137    1140    1146       8
    1134    1137   -1140    1146       9    1134    1137    1140    1149       8
    1134    1137   -1140    1149       9    1137    1134    1152    1155       4
    1140    1137    1134    1152       7    1155    1125    1122    1212       1
    1212    1215    1218    1221       1    1212    1215    1218    1248       1
    1212    1215    1305    1308       2    1215    1218    1221    1224       4
    1215    1218    1248    1245       4    1215    1305    1308    1311       5
    1215    1305    1308    1398       2    1218    1215    1305    1308       5
    1218    1221    1224    1227       4    1218    1248   -1245    1227       4
    1221    1218    1215    1305       1    1221    1218    1248    1245       4
    1221    1224    1227    1230       4    1221    1224   -1227    1245       4
    1224    1221    1218    1248       4    1224    1227    1230    1233       7
    1224    1227   -1245    1248       4    1227    1230    1233    1236       8
    1227    1230   -1233    1236       9    1227    1230    1233    1239       8
    1227    1230   -1233    1239       9    1227    1230    1233    1242       8
    1227    1230   -1233    1242       9    1230    1227    1245    1248       4
    1233    1230    1227    1245       7    1248    1218    1215    1305       1
    1305    1308    1311    1314       1    1305    1308    1311    1341       1
    1305    1308    1398    1401       2    1308    1311    1314    1317       4
    1308    1311    1341    1338       4    1308    1398    1401    1404       5
    1308    1398    1401    1491       2    1311    1308    1398    1401       5
    1311    1314    1317    1320       4    1311    1341   -1338    1320       4
    1314    1311    1308    1398       1    1314    1311    1341    1338       4
    1314    1317    1320    1323       4    1314    1317   -1320    1338       4
    1317    1314    1311    1341       4    1317    1320    1323    1326       7
    1317    1320   -1338    1341       4    1320    1323    1326    1329       8
    1320    1323   -1326    1329       9    1320    1323    1326    1332       8
    1320    1323   -1326    1332       9    1320    1323    1326    1335       8
    1320    1323   -1326    1335       9    1323    1320    1338    1341       4
    1326    1323    1320    1338       7    1341    1311    1308    1398       1
    1398    1401    1404    1407       1    1398    1401    1404    1434       1
    1398    1401    1491    1494       2    1401    1404    1407    1410       4
    1401    1404    1434    1431       4    1401    1491    1494    1497       5
    1401    1491    1494    1584       2    1404    1401    1491    1494       5
    1404    1407    1410    1413       4    1404    1434   -1431    1413       4
    1407    1404    1401    1491       1    1407    1404    1434    1431       4
    1407    1410    1413    1416       4    1407    1410   -1413    1431       4
    1410    1407    1404    1434       4    1410    1413    1416    1419       7
    1410    1413   -1431    1434       4    1413    1416    1419    1422       8
    1413    1416   -1419    1422       9    1413    1416    1419    1425       8
    1413    1416   -1419    1425       9    1413    1416    1419    1428       8
    1413    1416   -1419    1428       9    1416    1413    1431    1434       4
    1419    1416    1413    1431       7    1434    1404    1401    1491       1
    1491    1494    1497    1500       1    1491    1494    1497    1527       1
    1491    1494    1584    1587       2    1494    1497    1500    1503       4
    1494    1497    1527    1524       4    1494    1584    1587    1590       5
    1494    1584    1587    1677       2    1497    1494    1584    1587       5
    1497    1500    1503    1506       4    1497    1527   -1524    1506       4
    1500    1497    1494    1584       1    1500    1497    1527    1524       4
    1500    1503    1506    1509       4    1500    1503   -1506    1524       4
    1503    1500    1497    1527       4    1503    1506    1509    1512       7
    1503    1506   -1524    1527       4    1506    1509    1512    1515       8
    1506    1509   -1512    1515       9    1506    1509    1512    1518       8
    1506    1509   -1512    1518       9    1506    1509    1512    1521       8
    1506    1509   -1512    1521       9    1509    1506    1524    1527       4
    1512    1509    1506    1524       7    1527    1497    1494    1584       1
    1584    1587    1590    1593       1    1584    1587    1590    1620       1
    1584    1587    1677    1680       2    1587    1590    1593    1596       4
    1587    1590    1620    1617       4    1587    1677    1680    1683       5
    1587    1677    1680    1770       2    1590    1587    1677    1680       5
    1590    1593    1596    1599       4    1590    1620   -1617    1599       4
    1593    1590    1587    1677       1    1593    1590    1620    1617       4
    1593    1596    1599    1602       4    1593    1596   -1599    1617       4
    1596    1593    1590    1620       4    1596    1599    1602    1605       7
    1596    1599   -1617    1620       4    1599    1602    1605    1608       8
    1599    1602   -1605    1608       9    1599    1602    1605    1611       8
    1599    1602   -1605    1611       9    1599    1602    1605    1614       8
    1599    1602   -1605    1614       9    1602    1599    1617    1620       4
    1605    1602    1599    1617       7    1620    1590    1587    1677       1
    1677    1680    1683    1686       1    1677    1680    1683    1713       1
    1677    1680    1770    1773       2    1680    1683    1686    1689       4
    1680    1683    1713    1710       4    1680    1770    1773    1776       5
    1680    1770    1773    1815       2    1683    1680    1770    1773       5
    1683    1686    1689    1692       4    1683    1713   -1710    1692       4
    1686    1683    1680    1770       1    1686    1683    1713    1710       4
    1686    1689    1692    1695       4    1686    1689   -1692    1710       4
    1689    1686    1683    1713       4    1689    1692    1695    1698       7
    1689    1692   -1710    1713       4    1692    1695    1698    1701       8
    1692    1695   -1698    1701       9    1692    1695    1698    1704       8
    1692    1695   -1698    1704       9    1692    1695    1698    1707       8
    1692    1695   -1698    1707       9    1695    1692    1710    1713       4
    1698    1695    1692    1710       7    1713    1683    1680    1770       1
    1770    1773    1776    1779       1    1770    1773    1776    1806       1
    1773    1776    1779    1782       4    1773    1776    1806    1803       4
    1776    1779    1782    1785       4    1776    1806   -1803    1785       4
    1779    1776    1773    1815       1    1779    1776    1806    1803       4
    1779    1782    1785    1788       4    1779    1782   -1785    1803       4
    1782    1779    1776    1806       4    1782    1785    1788    1791       7
    1782    1785   -1803    1806       4    1785    1788    1791    1794       8
    1785    1788   -1791    1794       9    1785    1788    1791    1797       8
    1785    1788   -1791    1797       9    1785    1788    1791    1800       8
    1785    1788   -1791    1800       9    1788    1785    1803    1806       4
    1791    1788    1785    1803       7    1806    1776    1773    1815       1
       9      36      -6      -3      11      18      12     -15     -33      11
      99     105    -102    -132      11     114     108    -111    -129      11
     192     198    -195    -225      11     207     201    -204    -222      11
     285     291    -288    -318      11     300     294    -297    -315      11
     378     384    -381    -411      11     393     387    -390    -408      11
     471     477    -474    -504      11     486     480    -483    -501      11
     564     570    -567    -597      11     579     573    -576    -594      11
     657     663    -660    -690      11     672     666    -669    -687      11
     750     756    -753    -783      11     765     759    -762    -780      11
     843     849    -846    -876      11     858     852    -855    -873      11
     936     942    -939    -969      11     951     945    -948    -966      11
    1029    1035   -1032   -1062      11    1044    1038   -1041   -1059      11
    1122    1128   -1125   -1155      11    1137    1131   -1134   -1152      11
    1215    1221   -1218   -1248      11    1230    1224   -1227   -1245      11
    1308    1314   -1311   -1341      11    1323    1317   -1320   -1338      11
    1401    1407   -1404   -1434      11    1416    1410   -1413   -1431      11
    1494    1500   -1497   -1527      11    1509    1503   -1506   -1524      11
    1587    1593   -1590   -1620      11    1602    1596   -1599   -1617      11
    1680    1686   -1683   -1713      11    1695    1689   -1692   -1710      11
    1773    1779   -1776   -1806      11    1788    1782   -1785   -1803      11
%FLAG EXCLUDED_ATOMS_LIST                                                       
%FORMAT(10I8)                                                                   
       2       3       4      13      14      15      16      17      33      34
      46      47     623     624     625       3       4       5      12      13
      14      15      16      17      18      32      33      34      35      46
      47      48      64     623     624     625       4       5       6      12
      13      14      15      16      17      18      19      31      32      33
      34      46      47       5       6       7      12      13      17      18
      19      32      33       6       7       8      12      13      18      19
      20      21      31       7       8       9      10      11      12      13
      18      19      20      21      31      32       8       9      10      11
      12      13      19      20      21      22      23      24      25      26
      27      28      29      30      31       9      10      11      12      20
      21      22      23      24      25      26      27      28      29      30
      10      11      20      21      22      23      24      25      26      27
      28      29      30      11      20      21      22      23      24      25
      26      27      28      29      30      20      21      22      23      24
      25      26      27      28      29      30      13      19      20      21
      31      32      17      18      31      32      33      15      16      17
      33     623     624     625      16      17      33     623     624     625
      17      33     623     624     625      33      34      46      47      19
       0      21       0      23      24      24       0      26      27      27
       0      29      30      30       0      32       0      34      35      36
      45      46      47      48      64      65      77      78      35      36
      37      44      45      46      47      48      49      63      64      65
      66      77      78      79      95      36      37      38      44      45
      46      47      48      49      50      62      63      64      65      77
      78      37      38      39      44      45      48      49      50      63
      64      38      39      40      44      45      49      50      51      52
      62      39      40      41      42      43      44      45      49      50
      51      52      62      63      40      41      42      43      44      45
      50      51      52      53      54      55      56      57      58      59
      60      61      62      41      42      43      44      51      52      53
      54      55      56      57      58      59      60      61      42      43
      51      52      53      54      55      56      57      58      59      60
      61      43      51      52      53      54      55      56      57      58
      59      60      61      51      52      53      54      55      56      57
      58      59      60      61      45      50      51      52      62      63
      48      49      62      63      64      47      48      64      48      64
      64      65      77      78      50       0      52       0      54      55
      55       0      57      58      58       0      60      61      61       0
      63       0      65      66      67      76      77      78      79      95
      96     108     109      66      67      68      75      76      77      78
      79      80      94      95      96      97     108     109     110     126
      67      68      69      75      76      77      78      79      80      81
      93      94      95      96     108     109      68      69      70      75
      76      79      80      81      94      95      69      70      71      75
      76      80      81      82      83      93      70      71      72      73
      74      75      76      80      81      82      83      93      94      71
      72      73      74      75      76      81      82      83      84      85
      86      87      88      89      90      91      92      93      72      73
      74      75      82      83      84      85      86      87      88      89
      90      91      92      73      74      82      83      84      85      86
      87      88      89      90      91      92      74      82      83      84
      85      86      87      88      89      90      91      92      82      83
      84      85      86      87      88      89      90      91      92      76
      81      82      83      93      94      79      80      93      94      95
      78      79      95      79      95      95      96     108     109      81
       0      83       0      85      86      86       0      88      89      89
       0      91      92      92       0      94       0      96      97      98
     107     108     109     110     126     127     139     140      97      98
      99     106     107     108     109     110     111     125     126     127
     128     139     140     141     157      98      99     100     106     107
     108     109     110     111     112     124     125     126     127     139
     140      99     100     101     106     107     110     111     112     125
     126     100     101     102     106     107     111     112     113     114
     124     101     102     103     104     105     106     107     111     112
     113     114     124     125     102     103     104     105     106     107
     112     113     114     115     116     117     118     119     120     121
     122     123     124     103     104     105     106     113     114     115
     116     117     118     119     120     121     122     123     104     105
     113     114     115     116     117     118     119     120     121     122
     123     105     113     114     115     116     117     118     119     120
     121     122     123     113     114     115     116     117     118     119
     120     121     122     123     107     112     113     114     124     125
     110     111     124     125     126     109     110     126     110     126
     126     127     139     140     112       0     114       0     116     117
     117       0     119     120     120       0     122     123     123       0
     125       0     127     128     129     138     139     140     141     157
     158     170     171     128     129     130     137     138     139     140
     141     142     156     157     158     159     170     171     172     188
     129     130     131     137     138     139     140     141     142     143
     155     156     157     158     170     171     130     131     132     137
     138     141     142     143     156     157     131     132     133     137
     138     142     143     144     145     155     132     133     134     135
     136     137     138     142     143     144     145     155     156     133
     134     135     136     137     138     143     144     145     146     147
     148     149     150     151     152     153     154     155     134     135
     136     137     144     145     146     147     148     149     150     151
     152     153     154     135     136     144     145     146     147     148
     149     150     151     152     153     154     136     144     145     146
     147     148     149     150     151     152     153     154     144     145
     146     147     148     149     150     151     152     153     154     138
     143     144     145     155     156     141     142     155     156     157
     140     141     157     141     157     157     158     170     171     143
       0     145       0     147     148     148       0     150     151     151
       0     153     154     154       0     156       0     158     159     160
     169     170     171     172     188     189     201     202     159     160
     161     168     169     170     171     172     173     187     188     189
     190     201     202     203     219     160     161     162     168     169
     170     171     172     173     174     186     187     188     189     201
     202     161     162     163     168     169     172     173     174     187
     188     162     163     164     168     169     173     174     175     176
     186     163     164     165     166     167     168     169     173     174
     175     176     186     187     164     165     166     167     168     169
     174     175     176     177     178     179     180     181     182     183
     184     185     186     165     166     167     168     175     176     177
     178     179     180     181     182     183     184     185     166     167
     175     176     177     178     179     180     181     182     183     184
     185     167     175     176     177     178     179     180     181     182
     183     184     185     175     176     177     178     179     180     181
     182     183     184     185     169     174     175     176     186     187
     172     173     186     187     188     171     172     188     172     188
     188     189     201     202     174       0     176       0     178     179
     179       0     181     182     182       0     184     185     185       0
     187       0     189     190     191     200     201     202     203     219
     220     232     233     190     191     192     199     200     201     202
     203     204     218     219     220     221     232     233     234     250
     191     192     193     199     200     201     202     203     204     205
     217     218     219     220     232     233     192     193     194     199
     200     203     204     205     218     219     193     194     195     199
     200     204     205     206     207     217     194     195     196     197
     198     199     200     204     205     206     207     217     218     195
     196     197     198     199     200     205     206     207     208     209
     210     211     212     213     214     215     216     217     196     197
     198     199     206     207     208     209     210     211     212     213
     214     215     216     197     198     206     207     208     209     210
     211     212     213     214     215     216     198     206     207     208
     209     210     211     212     213     214     215     216     206     207
     208     209     210     211     212     213     214     215     216     200
     205     206     207     217     218     203     204     217     218     219
     202     203     219     203     219     219     220     232     233     205
       0     207       0     209     210     210       0     212     213     213
       0     215     216     216       0     218       0     220     221     222
     231     232     233     234     250     251     263     264     221     222
     223     230     231     232     233     234     235     249     250     251
     252     263     264     265     281     222     223     224     230     231
     232     233     234     235     236     248     249     250     251     263
     264     223     224     225     230     231     234     235     236     249
     250     224     225     226     230     231     235     236     237     238
     248     225     226     227     228     229     230     231     235     236
     237     238     248     249     226     227     228     229     230     231
     236     237     238     239     240     241     242     243     244     245
     246     247     248     227     228     229     230     237     238     239
     240     241     242     243     244     245     246     247     228     229
     237     238     239     240     241     242     243     244     245     246
     247     229     237     238     239     240     241     242     243     244
     245     246     247     237     238     239     240     241     242     243
     244     245     246     247     231     236     237     238     248     249
     234     235     248     249     250     233     234     250     234     250
     250     251     263     264     236       0     238       0     240     241
     241       0     243     244     244       0     246     247     247       0
     249       0     251     252     253     262     263     264     265     281
     282     294     295     252     253     254     261     262     263     264
     265     266     280     281     282     283     294     295     296     312
     253     254     255     261     262     263     264     265     266     267
     279     280     281     282     294     295     254     255     256     261
     262     265     266     267     280     281     255     256     257     261
     262     266     267     268     269     279     256     257     258     259
     260     261     262     266     267     268     269     279     280     257
     258     259     260     261     262     267     268     269     270     271
     272     273     274     275     276     277     278     279     258     259
     260     261     268     269     270     271     272     273     274     275
     276     277     278     259     260     268     269     270     271     272
     273     274     275     276     277     278     260     268     269     270
     271     272     273     274     275     276     277     278     268     269
     270     271     272     273     274     275     276     277     278     262
     267     268     269     279     280     265     266     279     280     281
     264     265     281     265     281     281     282     294     295     267
       0     269       0     271     272     272       0     274     275     275
       0     277     278     278       0     280       0     282     283     284
     293     294     295     296     312     313     325     326     283     284
     285     292     293     294     295     296     297     311     312     313
     314     325     326     327     343     284     285     286     292     293
     294     295     296     297     298     310     311     312     313     325
     326     285     286     287     292     293     296     297     298     311
     312     286     287     288     292     293     297     298     299     300
     310     287     288     289     290     291     292     293     297     298
     299     300     310     311     288     289     290     291     292     293
     298     299     300     301     302     303     304     305     306     307
     308     309     310     289     290     291     292     299     300     301
     302     303     304     305     306     307     308     309     290     291
     299     300     301     302     303     304     305     306     307     308
     309     291     299     300     301     302     303     304     305     306
     307     308     309     299     300     301     302     303     304     305
     306     307     308     309     293     298     299     300     310     311
     296     297     310     311     312     295     296     312     296     312
     312     313     325     326     298       0     300       0     302     303
     303       0     305     306     306       0     308     309     309       0
     311       0     313     314     315     324     325     326     327     343
     344     356     357     314     315     316     323     324     325     326
     327     328     342     343     344     345     356     357     358     374
     315     316     317     323     324     325     326     327     328     329
     341     342     343     344     356     357     316     317     318     323
     324     327     328     329     342     343     317     318     319     323
     324     328     329     330     331     341     318     319     320     321
     322     323     324     328     329     330     331     341     342     319
     320     321     322     323     324     329     330     331     332     333
     334     335     336     337     338     339     340     341     320     321
     322     323     330     331     332     333     334     335     336     337
     338     339     340     321     322     330     331     332     333     334
     335     336     337     338     339     340     322     330     331     332
     333     334     335     336     337     338     339     340     330     331
     332     333     334     335     336     337     338     339     340     324
     329     330     331     341     342     327     328     341     342     343
     326     327     343     327     343     343     344     356     357     329
       0     331       0     333     334     334       0     336     337     337
       0     339     340     340       0     342       0     344     345     346
     355     356     357     358     374     375     387     388     345     346
     347     354     355     356     357     358     359     373     374     375
     376     387     388     389     405     346     347     348     354     355
     356     357     358     359     360     372     373     374     375     387
     388     347     348     349     354     355     358     359     360     373
     374     348     349     350     354     355     359     360     361     362
     372     349     350     351     352     353     354     355     359     360
     361     362     372     373     350     351     352     353     354     355
     360     361     362     363     364     365     366     367     368     369
     370     371     372     351     352     353     354     361     362     363
     364     365     366     367     368     369     370     371     352     353
     361     362     363     364     365     366     367     368     369     370
     371     353     361     362     363     364     365     366     367     368
     369     370     371     361     362     363     364     365     366     367
     368     369     370     371     355     360     361     362     372     373
     358     359     372     373     374     357     358     374     358     374
     374     375     387     388     360       0     362       0     364     365
     365       0     367     368     368       0     370     371     371       0
     373       0     375     376     377     386     387     388     389     405
     406     418     419     376     377     378     385     386     387     388
     389     390     404     405     406     407     418     419     420     436
     377     378     379     385     386     387     388     389     390     391
     403     404     405     406     418     419     378     379     380     385
     386     389     390     391     404     405     379     380     381     385
     386     390     391     392     393     403     380     381     382     383
     384     385     386     390     391     392     393     403     404     381
     382     383     384     385     386     391     392     393     394     395
     396     397     398     399     400     401     402     403     382     383
     384     385     392     393     394     395     396     397     398     399
     400     401     402     383     384     392     393     394     395     396
     397     398     399     400     401     402     384     392     393     394
     395     396     397     398     399     400     401     402     392     393
     394     395     396     397     398     399     400     401     402     386
     391     392     393     403     404     389     390     403     404     405
     388     389     405     389     405     405     406     418     419     391
       0     393       0     395     396     396       0     398     399     399
       0     401     402     402       0     404       0     406     407     408
     417     418     419     420     436     437     449     450     407     408
     409     416     417     418     419     420     421     435     436     437
     438     449     450     451     467     408     409     410     416     417
     418     419     420     421     422     434     435     436     437     449
     450     409     410     411     416     417     420     421     422     435
     436     410     411     412     416     417     421     422     423     424
     434     411     412     413     414     415     416     417     421     422
     423     424     434     435     412     413     414     415     416     417
     422     423     424     425     426     427     428     429     430     431
     432     433     434     413     414     415     416     423     424     425
     426     427     428     429     430     431     432     433     414     415
     423     424     425     426     427     428     429     430     431     432
     433     415     423     424     425     426     427     428     429     430
     431     432     433     423     424     425     426     427     428     429
     430     431     432     433     417     422     423     424     434     435
     420     421     434     435     436     419     420     436     420     436
     436     437     449     450     422       0     424       0     426     427
     427       0     429     430     430       0     432     433     433       0
     435       0     437     438     439     448     449     450     451     467
     468     480     481     438     439     440     447     448     449     450
     451     452     466     467     468     469     480     481     482     498
     439     440     441     447     448     449     450     451     452     453
     465     466     467     468     480     481     440     441     442     447
     448     451     452     453     466     467     441     442     443     447
     448     452     453     454     455     465     442     443     444     445
     446     447     448     452     453     454     455     465     466     443
     444     445     446     447     448     453     454     455     456     457
     458     459     460     461     462     463     464     465     444     445
     446     447     454     455     456     457     458     459     460     461
     462     463     464     445     446     454     455     456     457     458
     459     460     461     462     463     464     446     454     455     456
     457     458     459     460     461     462     463     464     454     455
     456     457     458     459     460     461     462     463     464     448
     453     454     455     465     466     451     452     465     466     467
     450     451     467     451     467     467     468     480     481     453
       0     455       0     457     458     458       0     460     461     461
       0     463     464     464       0     466       0     468     469     470
     479     480     481     482     498     499     511     512     469     470
     471     478     479     480     481     482     483     497     498     499
     500     511     512     513     529     470     471     472     478     479
     480     481     482     483     484     496     497     498     499     511
     512     471     472     473     478     479     482     483     484     497
     498     472     473     474     478     479     483     484     485     486
     496     473     474     475     476     477     478     479     483     484
     485     486     496     497     474     475     476     477     478     479
     484     485     486     487     488     489     490     491     492     493
     494     495     496     475     476     477     478     485     486     487
     488     489     490     491     492     493     494     495     476     477
     485     486     487     488     489     490     491     492     493     494
     495     477     485     486     487     488     489     490     491     492
     493     494     495     485     486     487     488     489     490     491
     492     493     494     495     479     484     485     486     496     497
     482     483     496     497     498     481     482     498     482     498
     498     499     511     512     484       0     486       0     488     489
     489       0     491     492     492       0     494     495     495       0
     497       0     499     500     501     510     511     512     513     529
     530     542     543     500     501     502     509     510     511     512
     513     514     528     529     530     531     542     543     544     560
     501     502     503     509     510     511     512     513     514     515
     527     528     529     530     542     543     502     503     504     509
     510     513     514     515     528     529     503     504     505     509
     510     514     515     516     517     527     504     505     506     507
     508     509     510     514     515     516     517     527     528     505
     506     507     508     509     510     515     516     517     518     519
     520     521     522     523     524     525     526     527     506     507
     508     509     516     517     518     519     520     521     522     523
     524     525     526     507     508     516     517     518     519     520
     521     522     523     524     525     526     508     516     517     518
     519     520     521     522     523     524     525     526     516     517
     518     519     520     521     522     523     524     525     526     510
     515     516     517     527     528     513     514     527     528     529
     512     513     529     513     529     529     530     542     543     515
       0     517       0     519     520     520       0     522     523     523
       0     525     526     526       0     528       0     530     531     532
     541     542     543     544     560     561     573     574     531     532
     533     540     541     542     543     544     545     559     560     561
     562     573     574     575     591     532     533     534     540     541
     542     543     544     545     546     558     559     560     561     573
     574     533     534     535     540     541     544     545     546     559
     560     534     535     536     540     541     545     546     547     548
     558     535     536     537     538     539     540     541     545     546
     547     548     558     559     536     537     538     539     540     541
     546     547     548     549     550     551     552     553     554     555
     556     557     558     537     538     539     540     547     548     549
     550     551     552     553     554     555     556     557     538     539
     547     548     549     550     551     552     553     554     555     556
     557     539     547     548     549     550     551     552     553     554
     555     556     557     547     548     549     550     551     552     553
     554     555     556     557     541     546     547     548     558     559
     544     545     558     559     560     543     544     560     544     560
     560     561     573     574     546       0     548       0     550     551
     551       0     553     554     554       0     556     557     557       0
     559       0     561     562     563     572     573     574     575     591
     592     604     605     562     563     564     571     572     573     574
     575     576     590     591     592     593     604     605     606     607
     563     564     565     571     572     573     574     575     576     577
     589     590     591     592     604     605     564     565     566     571
     572     575     576     577     590     591     565     566     567     571
     572     576     577     578     579     589     566     567     568     569
     570     571     572     576     577     578     579     589     590     567
     568     569     570     571     572     577     578     579     580     581
     582     583     584     585     586     587     588     589     568     569
     570     571     578     579     580     581     582     583     584     585
     586     587     588     569     570     578     579     580     581     582
     583     584     585     586     587     588     570     578     579     580
     581     582     583     584     585     586     587     588     578     579
     580     581     582     583     584     585     586     587     588     572
     577     578     579     589     590     575     576     589     590     591
     574     575     591     575     591     591     592     604     605     577
       0     579       0     581     582     582       0     584     585     585
       0     587     588     588       0     590       0     592     593     594
     603     604     605     606     607     626     627     628     593     594
     595     602     603     604     605     606     607     608     622     626
     627     628     594     595     596     602     603     604     605     606
     607     608     609     621     622     626     627     628     595     596
     597     602     603     606     607     608     609     622     596     597
     598     602     603     608     609     610     611     621     597     598
     599     600     601     602     603     608     609     610     611     621
     622     598     599     600     601     602     603     609     610     611
     612     613     614     615     616     617     618     619     620     621
     599     600     601     602     610     611     612     613     614     615
     616     617     618     619     620     600     601     610     611     612
     613     614     615     616     617     618     619     620     601     610
     611     612     613     614     615     616     617     618     619     620
     610     611     612     613     614     615     616     617     618     619
     620     603     609     610     611     621     622     606     607     608
     621     622     605     606     607     606     607     607     626     627
     628     626     627     628     609       0     611       0     613     614
     614       0     616     617     617       0     619     620     620       0
     622       0     624     625     625       0     627     628     628       0
%FLAG HBOND_ACOEF                                                               
%FORMAT(5E16.8)                                                                 

%FLAG HBOND_BCOEF                                                               
%FORMAT(5E16.8)                                                                 

%FLAG HBCUT                                                                     
%FORMAT(5E16.8)                                                                 

%FLAG AMBER_ATOM_TYPE                                                           
%FORMAT(20a4)                                                                   
c3  c3  ca  ca  ca  ca  c3  n4  c3  c3  c3  ca  ca  c3  hc  hc  hc  ha  ha  hx  
hx  hx  hx  hx  hx  hx  hx  hx  hx  hx  ha  ha  c3  c3  ca  ca  ca  ca  c3  n4  
c3  c3  c3  ca  ca  hc  hc  hc  ha  ha  hx  hx  hx  hx  hx  hx  hx  hx  hx  hx  
hx  ha  ha  c3  c3  ca  ca  ca  ca  c3  n4  c3  c3  c3  ca  ca  hc  hc  hc  ha  
ha  hx  hx  hx  hx  hx  hx  hx  hx  hx  hx  hx  ha  ha  c3  c3  ca  ca  ca  ca  
c3  n4  c3  c3  c3  ca  ca  hc  hc  hc  ha  ha  hx  hx  hx  hx  hx  hx  hx  hx  
hx  hx  hx  ha  ha  c3  c3  ca  ca  ca  ca  c3  n4  c3  c3  c3  ca  ca  hc  hc  
hc  ha  ha  hx  hx  hx  hx  hx  hx  hx  hx  hx  hx  hx  ha  ha  c3  c3  ca  ca  
ca  ca  c3  n4  c3  c3  c3  ca  ca  hc  hc  hc  ha  ha  hx  hx  hx  hx  hx  hx  
hx  hx  hx  hx  hx  ha  ha  c3  c3  ca  ca  ca  ca  c3  n4  c3  c3  c3  ca  ca  
hc  hc  hc  ha  ha  hx  hx  hx  hx  hx  hx  hx  hx  hx  hx  hx  ha  ha  c3  c3  
ca  ca  ca  ca  c3  n4  c3  c3  c3  ca  ca  hc  hc  hc  ha  ha  hx  hx  hx  hx  
hx  hx  hx  hx  hx  hx  hx  ha  ha  c3  c3  ca  ca  ca  ca  c3  n4  c3  c3  c3  
ca  ca  hc  hc  hc  ha  ha  hx  hx  hx  hx  hx  hx  hx  hx  hx  hx  hx  ha  ha  
c3  c3  ca  ca  ca  ca  c3  n4  c3  c3  c3  ca  ca  hc  hc  hc  ha  ha  hx  hx  
hx  hx  hx  hx  hx  hx  hx  hx  hx  ha  ha  c3  c3  ca  ca  ca  ca  c3  n4  c3  
c3  c3  ca  ca  hc  hc  hc  ha  ha  hx  hx  hx  hx  hx  hx  hx  hx  hx  hx  hx  
ha  ha  c3  c3  ca  ca  ca  ca  c3  n4  c3  c3  c3  ca  ca  hc  hc  hc  ha  ha  
hx  hx  hx  hx  hx  hx  hx  hx  hx  hx  hx  ha  ha  c3  c3  ca  ca  ca  ca  c3  
n4  c3  c3  c3  ca  ca  hc  hc  hc  ha  ha  hx  hx  hx  hx  hx  hx  hx  hx  hx  
hx  hx  ha  ha  c3  c3  ca  ca  ca  ca  c3  n4  c3  c3  c3  ca  ca  hc  hc  hc  
ha  ha  hx  hx  hx  hx  hx  hx  hx  hx  hx  hx  hx  ha  ha  c3  c3  ca  ca  ca  
ca  c3  n4  c3  c3  c3  ca  ca  hc  hc  hc  ha  ha  hx  hx  hx  hx  hx  hx  hx  
hx  hx  hx  hx  ha  ha  c3  c3  ca  ca  ca  ca  c3  n4  c3  c3  c3  ca  ca  hc  
hc  hc  ha  ha  hx  hx  hx  hx  hx  hx  hx  hx  hx  hx  hx  ha  ha  c3  c3  ca  
ca  ca  ca  c3  n4  c3  c3  c3  ca  ca  hc  hc  hc  ha  ha  hx  hx  hx  hx  hx  
hx  hx  hx  hx  hx  hx  ha  ha  c3  c3  ca  ca  ca  ca  c3  n4  c3  c3  c3  ca  
ca  hc  hc  hc  ha  ha  hx  hx  hx  hx  hx  hx  hx  hx  hx  hx  hx  ha  ha  c3  
c3  ca  ca  ca  ca  c3  n4  c3  c3  c3  ca  ca  hc  hc  hc  ha  ha  hx  hx  hx  
hx  hx  hx  hx  hx  hx  hx  hx  ha  ha  c3  c3  ca  ca  ca  ca  c3  n4  c3  c3  
c3  ca  ca  hc  hc  c3  hc  ha  ha  hx  hx  hx  hx  hx  hx  hx  hx  hx  hx  hx  
ha  ha  hc  hc  hc  hc  hc  hc  
%FLAG TREE_CHAIN_CLASSIFICATION                                                 
%FORMAT(20a4)                                                                   
BLA BLA BLA BLA BLA BLA BLA BLA BLA BLA BLA BLA BLA BLA BLA BLA BLA BLA BLA BLA 
BLA BLA BLA BLA BLA BLA BLA BLA BLA BLA BLA BLA BLA BLA BLA BLA BLA BLA BLA BLA 
BLA BLA BLA BLA BLA BLA BLA BLA BLA BLA BLA BLA BLA BLA BLA BLA BLA BLA BLA BLA 
BLA BLA BLA BLA BLA BLA BLA BLA BLA BLA BLA BLA BLA BLA BLA BLA BLA BLA BLA BLA 
BLA BLA BLA BLA BLA BLA BLA BLA BLA BLA BLA BLA BLA BLA BLA BLA BLA BLA BLA BLA 
BLA BLA BLA BLA BLA BLA BLA BLA BLA BLA BLA BLA BLA BLA BLA BLA BLA BLA BLA BLA 
BLA BLA BLA BLA BLA BLA BLA BLA BLA BLA BLA BLA BLA BLA BLA BLA BLA BLA BLA BLA 
BLA BLA BLA BLA BLA BLA BLA BLA BLA BLA BLA BLA BLA BLA BLA BLA BLA BLA BLA BLA 
BLA BLA BLA BLA BLA BLA BLA BLA BLA BLA BLA BLA BLA BLA BLA BLA BLA BLA BLA BLA 
BLA BLA BLA BLA BLA BLA BLA BLA BLA BLA BLA BLA BLA BLA BLA BLA BLA BLA BLA BLA 
BLA BLA BLA BLA BLA BLA BLA BLA BLA BLA BLA BLA BLA BLA BLA BLA BLA BLA BLA BLA 
BLA BLA BLA BLA BLA BLA BLA BLA BLA BLA BLA BLA BLA BLA BLA BLA BLA BLA BLA BLA 
BLA BLA BLA BLA BLA BLA BLA BLA BLA BLA BLA BLA BLA BLA BLA BLA BLA BLA BLA BLA 
BLA BLA BLA BLA BLA BLA BLA BLA BLA BLA BLA BLA BLA BLA BLA BLA BLA BLA BLA BLA 
BLA BLA BLA BLA BLA BLA BLA BLA BLA BLA BLA BLA BLA BLA BLA BLA BLA BLA BLA BLA 
BLA BLA BLA BLA BLA BLA BLA BLA BLA BLA BLA BLA BLA BLA BLA BLA BLA BLA BLA BLA 
BLA BLA BLA BLA BLA BLA BLA BLA BLA BLA BLA BLA BLA BLA BLA BLA BLA BLA BLA BLA 
BLA BLA BLA BLA BLA BLA BLA BLA BLA BLA BLA BLA BLA BLA BLA BLA BLA BLA BLA BLA 
BLA BLA BLA BLA BLA BLA BLA BLA BLA BLA BLA BLA BLA BLA BLA BLA BLA BLA BLA BLA 
BLA BLA BLA BLA BLA BLA BLA BLA BLA BLA BLA BLA BLA BLA BLA BLA BLA BLA BLA BLA 
BLA BLA BLA BLA BLA BLA BLA BLA BLA BLA BLA BLA BLA BLA BLA BLA BLA BLA BLA BLA 
BLA BLA BLA BLA BLA BLA BLA BLA BLA BLA BLA BLA BLA BLA BLA BLA BLA BLA BLA BLA 
BLA BLA BLA BLA BLA BLA BLA BLA BLA BLA BLA BLA BLA BLA BLA BLA BLA BLA BLA BLA 
BLA BLA BLA BLA BLA BLA BLA BLA BLA BLA BLA BLA BLA BLA BLA BLA BLA BLA BLA BLA 
BLA BLA BLA BLA BLA BLA BLA BLA BLA BLA BLA BLA BLA BLA BLA BLA BLA BLA BLA BLA 
BLA BLA BLA BLA BLA BLA BLA BLA BLA BLA BLA BLA BLA BLA BLA BLA BLA BLA BLA BLA 
BLA BLA BLA BLA BLA BLA BLA BLA BLA BLA BLA BLA BLA BLA BLA BLA BLA BLA BLA BLA 
BLA BLA BLA BLA BLA BLA BLA BLA BLA BLA BLA BLA BLA BLA BLA BLA BLA BLA BLA BLA 
BLA BLA BLA BLA BLA BLA BLA BLA BLA BLA BLA BLA BLA BLA BLA BLA BLA BLA BLA BLA 
BLA BLA BLA BLA BLA BLA BLA BLA BLA BLA BLA BLA BLA BLA BLA BLA BLA BLA BLA BLA 
BLA BLA BLA BLA BLA BLA BLA BLA BLA BLA BLA BLA BLA BLA BLA BLA BLA BLA BLA BLA 
BLA BLA BLA BLA BLA BLA BLA BLA 
%FLAG JOIN_ARRAY                                                                
%FORMAT(10I8)                                                                   
       0       0       0       0       0       0       0       0       0       0
       0       0       0       0       0       0       0       0       0       0
       0       0       0       0       0       0       0       0       0       0
       0       0       0       0       0       0       0       0       0       0
       0       0       0       0       0       0       0       0       0       0
       0       0       0       0       0       0       0       0       0       0
       0       0       0       0       0       0       0       0       0       0
       0       0       0       0       0       0       0       0       0       0
       0       0       0       0       0       0       0       0       0       0
       0       0       0       0       0       0       0       0       0       0
       0       0       0       0       0       0       0       0       0       0
       0       0       0       0       0       0       0       0       0       0
       0       0       0       0       0       0       0       0       0       0
       0       0       0       0       0       0       0       0       0       0
       0       0       0       0       0       0       0       0       0       0
       0       0       0       0       0       0       0       0       0       0
       0       0       0       0       0       0       0       0       0       0
       0       0       0       0       0       0       0       0       0       0
       0       0       0       0       0       0       0       0       0       0
       0       0       0       0       0       0       0       0       0       0
       0       0       0       0       0       0       0       0       0       0
       0       0       0       0       0       0       0       0       0       0
       0       0       0       0       0       0       0       0       0       0
       0       0       0       0       0       0       0       0       0       0
       0       0       0       0       0       0       0       0       0       0
       0       0       0       0       0       0       0       0       0       0
       0       0       0       0       0       0       0       0       0       0
       0       0       0       0       0       0       0       0       0       0
       0       0       0       0       0       0       0       0       0       0
       0       0       0       0       0       0       0       0       0       0
       0       0       0       0       0       0       0       0       0       0
       0       0       0       0       0       0       0       0       0       0
       0       0       0       0       0       0       0       0       0       0
       0       0       0       0       0       0       0       0       0       0
       0       0       0       0       0       0       0       0       0       0
       0       0       0       0       0       0       0       0       0       0
       0       0       0       0       0       0       0       0       0       0
       0       0       0       0       0       0       0       0       0       0
       0       0       0       0       0       0       0       0       0       0
       0       0       0       0       0       0       0       0       0       0
       0       0       0       0       0       0       0       0       0       0
       0       0       0       0       0       0       0       0       0       0
       0       0       0       0       0       0       0       0       0       0
       0       0       0       0       0       0       0       0       0       0
       0       0       0       0       0       0       0       0       0       0
       0       0       0       0       0       0       0       0       0       0
       0       0       0       0       0       0       0       0       0       0
       0       0       0       0       0       0       0       0       0       0
       0       0       0       0       0       0       0       0       0       0
       0       0       0       0       0       0       0       0       0       0
       0       0       0       0       0       0       0       0       0       0
       0       0       0       0       0       0       0       0       0       0
       0       0       0       0       0       0       0       0       0       0
       0       0       0       0       0       0       0       0       0       0
       0       0       0       0       0       0       0       0       0       0
       0       0       0       0       0       0       0       0       0       0
       0       0       0       0       0       0       0       0       0       0
       0       0       0       0       0       0       0       0       0       0
       0       0       0       0       0       0       0       0       0       0
       0       0       0       0       0       0       0       0       0       0
       0       0       0       0       0       0       0       0       0       0
       0       0       0       0       0       0       0       0       0       0
       0       0       0       0       0       0       0       0
%FLAG IROTAT                                                                    
%FORMAT(10I8)                                                                   
       0       0       0       0       0       0       0       0       0       0
       0       0       0       0       0       0       0       0       0       0
       0       0       0       0       0       0       0       0       0       0
       0       0       0       0       0       0       0       0       0       0
       0       0       0       0       0       0       0       0       0       0
       0       0       0       0       0       0       0       0       0       0
       0       0       0       0       0       0       0       0       0       0
       0       0       0       0       0       0       0       0       0       0
       0       0       0       0       0       0       0       0       0       0
       0       0       0       0       0       0       0       0       0       0
       0       0       0       0       0       0       0       0       0       0
       0       0       0       0       0       0       0       0       0       0
       0       0       0       0       0       0       0       0       0       0
       0       0       0       0       0       0       0       0       0       0
       0       0       0       0       0       0       0       0       0       0
       0       0       0       0       0       0       0       0       0       0
       0       0       0       0       0       0       0       0       0       0
       0       0       0       0       0       0       0       0       0       0
       0       0       0       0       0       0       0       0       0       0
       0       0       0       0       0       0       0       0       0       0
       0       0       0       0       0       0       0       0       0       0
       0       0       0       0       0       0       0       0       0       0
       0       0       0       0       0       0       0       0       0       0
       0       0       0       0       0       0       0       0       0       0
       0       0       0       0       0       0       0       0       0       0
       0       0       0       0       0       0       0       0       0       0
       0       0       0       0       0       0       0       0       0       0
       0       0       0       0       0       0       0       0       0       0
       0       0       0       0       0       0       0       0       0       0
       0       0       0       0       0       0       0       0       0       0
       0       0       0       0       0       0       0       0       0       0
       0       0       0       0       0       0       0       0       0       0
       0       0       0       0       0       0       0       0       0       0
       0       0       0       0       0       0       0       0       0       0
       0       0       0       0       0       0       0       0       0       0
       0       0       0       0       0       0       0       0       0       0
       0       0       0       0       0       0       0       0       0       0
       0       0       0       0       0       0       0       0       0       0
       0       0       0       0       0       0       0       0       0       0
       0       0       0       0       0       0       0       0       0       0
       0       0       0       0       0       0       0       0       0       0
       0       0       0       0       0       0       0       0       0       0
       0       0       0       0       0       0       0       0       0       0
       0       0       0       0       0       0       0       0       0       0
       0       0       0       0       0       0       0       0       0       0
       0       0       0       0       0       0       0       0       0       0
       0       0       0       0       0       0       0       0       0       0
       0       0       0       0       0       0       0       0       0       0
       0       0       0       0       0       0       0       0       0       0
       0       0       0       0       0       0       0       0       0       0
       0       0       0       0       0       0       0       0       0       0
       0       0       0       0       0       0       0       0       0       0
       0       0       0       0       0       0       0       0       0       0
       0       0       0       0       0       0       0       0       0       0
       0       0       0       0       0       0       0       0       0       0
       0       0       0       0       0       0       0       0       0       0
       0       0       0       0       0       0       0       0       0       0
       0       0       0       0       0       0       0       0       0       0
       0       0       0       0       0       0       0       0       0       0
       0       0       0       0       0       0       0       0       0       0
       0       0       0       0       0       0       0       0       0       0
       0       0       0       0       0       0       0       0       0       0
       0       0       0       0       0       0       0       0
%FLAG RADIUS_SET                                                                
%FORMAT(1a80)                                                                   
modified Bondi radii (mbondi)                                                   
%FLAG RADII                                                                     
%FORMAT(5E16.8)                                                                 
  1.70000000E+00  1.70000000E+00  1.70000000E+00  1.70000000E+00  1.70000000E+00
  1.70000000E+00  1.70000000E+00  1.55000000E+00  1.70000000E+00  1.70000000E+00
  1.70000000E+00  1.70000000E+00  1.70000000E+00  1.70000000E+00  1.30000000E+00
  1.30000000E+00  1.30000000E+00  1.30000000E+00  1.30000000E+00  1.30000000E+00
  1.30000000E+00  1.30000000E+00  1.30000000E+00  1.30000000E+00  1.30000000E+00
  1.30000000E+00  1.30000000E+00  1.30000000E+00  1.30000000E+00  1.30000000E+00
  1.30000000E+00  1.30000000E+00  1.70000000E+00  1.70000000E+00  1.70000000E+00
  1.70000000E+00  1.70000000E+00  1.70000000E+00  1.70000000E+00  1.55000000E+00
  1.70000000E+00  1.70000000E+00  1.70000000E+00  1.70000000E+00  1.70000000E+00
  1.30000000E+00  1.30000000E+00  1.30000000E+00  1.30000000E+00  1.30000000E+00
  1.30000000E+00  1.30000000E+00  1.30000000E+00  1.30000000E+00  1.30000000E+00
  1.30000000E+00  1.30000000E+00  1.30000000E+00  1.30000000E+00  1.30000000E+00
  1.30000000E+00  1.30000000E+00  1.30000000E+00  1.70000000E+00  1.70000000E+00
  1.70000000E+00  1.70000000E+00  1.70000000E+00  1.70000000E+00  1.70000000E+00
  1.55000000E+00  1.70000000E+00  1.70000000E+00  1.70000000E+00  1.70000000E+00
  1.70000000E+00  1.30000000E+00  1.30000000E+00  1.30000000E+00  1.30000000E+00
  1.30000000E+00  1.30000000E+00  1.30000000E+00  1.30000000E+00  1.30000000E+00
  1.30000000E+00  1.30000000E+00  1.30000000E+00  1.30000000E+00  1.30000000E+00
  1.30000000E+00  1.30000000E+00  1.30000000E+00  1.30000000E+00  1.70000000E+00
  1.70000000E+00  1.70000000E+00  1.70000000E+00  1.70000000E+00  1.70000000E+00
  1.70000000E+00  1.55000000E+00  1.70000000E+00  1.70000000E+00  1.70000000E+00
  1.70000000E+00  1.70000000E+00  1.30000000E+00  1.30000000E+00  1.30000000E+00
  1.30000000E+00  1.30000000E+00  1.30000000E+00  1.30000000E+00  1.30000000E+00
  1.30000000E+00  1.30000000E+00  1.30000000E+00  1.30000000E+00  1.30000000E+00
  1.30000000E+00  1.30000000E+00  1.30000000E+00  1.30000000E+00  1.30000000E+00
  1.70000000E+00  1.70000000E+00  1.70000000E+00  1.70000000E+00  1.70000000E+00
  1.70000000E+00  1.70000000E+00  1.55000000E+00  1.70000000E+00  1.70000000E+00
  1.70000000E+00  1.70000000E+00  1.70000000E+00  1.30000000E+00  1.30000000E+00
  1.30000000E+00  1.30000000E+00  1.30000000E+00  1.30000000E+00  1.30000000E+00
  1.30000000E+00  1.30000000E+00  1.30000000E+00  1.30000000E+00  1.30000000E+00
  1.30000000E+00  1.30000000E+00  1.30000000E+00  1.30000000E+00  1.30000000E+00
  1.30000000E+00  1.70000000E+00  1.70000000E+00  1.70000000E+00  1.70000000E+00
  1.70000000E+00  1.70000000E+00  1.70000000E+00  1.55000000E+00  1.70000000E+00
  1.70000000E+00  1.70000000E+00  1.70000000E+00  1.70000000E+00  1.30000000E+00
  1.30000000E+00  1.30000000E+00  1.30000000E+00  1.30000000E+00  1.30000000E+00
  1.30000000E+00  1.30000000E+00  1.30000000E+00  1.30000000E+00  1.30000000E+00
  1.30000000E+00  1.30000000E+00  1.30000000E+00  1.30000000E+00  1.30000000E+00
  1.30000000E+00  1.30000000E+00  1.70000000E+00  1.70000000E+00  1.70000000E+00
  1.70000000E+00  1.70000000E+00  1.70000000E+00  1.70000000E+00  1.55000000E+00
  1.70000000E+00  1.70000000E+00  1.70000000E+00  1.70000000E+00  1.70000000E+00
  1.30000000E+00  1.30000000E+00  1.30000000E+00  1.30000000E+00  1.30000000E+00
  1.30000000E+00  1.30000000E+00  1.30000000E+00  1.30000000E+00  1.30000000E+00
  1.30000000E+00  1.30000000E+00  1.30000000E+00  1.30000000E+00  1.30000000E+00
  1.30000000E+00  1.30000000E+00  1.30000000E+00  1.70000000E+00  1.70000000E+00
  1.70000000E+00  1.70000000E+00  1.70000000E+00  1.70000000E+00  1.70000000E+00
  1.55000000E+00  1.70000000E+00  1.70000000E+00  1.70000000E+00  1.70000000E+00
  1.70000000E+00  1.30000000E+00  1.30000000E+00  1.30000000E+00  1.30000000E+00
  1.30000000E+00  1.30000000E+00  1.30000000E+00  1.30000000E+00  1.30000000E+00
  1.30000000E+00  1.30000000E+00  1.30000000E+00  1.30000000E+00  1.30000000E+00
  1.30000000E+00  1.30000000E+00  1.30000000E+00  1.30000000E+00  1.70000000E+00
  1.70000000E+00  1.70000000E+00  1.70000000E+00  1.70000000E+00  1.70000000E+00
  1.70000000E+00  1.55000000E+00  1.70000000E+00  1.70000000E+00  1.70000000E+00
  1.70000000E+00  1.70000000E+00  1.30000000E+00  1.30000000E+00  1.30000000E+00
  1.30000000E+00  1.30000000E+00  1.30000000E+00  1.30000000E+00  1.30000000E+00
  1.30000000E+00  1.30000000E+00  1.30000000E+00  1.30000000E+00  1.30000000E+00
  1.30000000E+00  1.30000000E+00  1.30000000E+00  1.30000000E+00  1.30000000E+00
  1.70000000E+00  1.70000000E+00  1.70000000E+00  1.70000000E+00  1.70000000E+00
  1.70000000E+00  1.70000000E+00  1.55000000E+00  1.70000000E+00  1.70000000E+00
  1.70000000E+00  1.70000000E+00  1.70000000E+00  1.30000000E+00  1.30000000E+00
  1.30000000E+00  1.30000000E+00  1.30000000E+00  1.30000000E+00  1.30000000E+00
  1.30000000E+00  1.30000000E+00  1.30000000E+00  1.30000000E+00  1.30000000E+00
  1.30000000E+00  1.30000000E+00  1.30000000E+00  1.30000000E+00  1.30000000E+00
  1.30000000E+00  1.70000000E+00  1.70000000E+00  1.70000000E+00  1.70000000E+00
  1.70000000E+00  1.70000000E+00  1.70000000E+00  1.55000000E+00  1.70000000E+00
  1.70000000E+00  1.70000000E+00  1.70000000E+00  1.70000000E+00  1.30000000E+00
  1.30000000E+00  1.30000000E+00  1.30000000E+00  1.30000000E+00  1.30000000E+00
  1.30000000E+00  1.30000000E+00  1.30000000E+00  1.30000000E+00  1.30000000E+00
  1.30000000E+00  1.30000000E+00  1.30000000E+00  1.30000000E+00  1.30000000E+00
  1.30000000E+00  1.30000000E+00  1.70000000E+00  1.70000000E+00  1.70000000E+00
  1.70000000E+00  1.70000000E+00  1.70000000E+00  1.70000000E+00  1.55000000E+00
  1.70000000E+00  1.70000000E+00  1.70000000E+00  1.70000000E+00  1.70000000E+00
  1.30000000E+00  1.30000000E+00  1.30000000E+00  1.30000000E+00  1.30000000E+00
  1.30000000E+00  1.30000000E+00  1.30000000E+00  1.30000000E+00  1.30000000E+00
  1.30000000E+00  1.30000000E+00  1.30000000E+00  1.30000000E+00  1.30000000E+00
  1.30000000E+00  1.30000000E+00  1.30000000E+00  1.70000000E+00  1.70000000E+00
  1.70000000E+00  1.70000000E+00  1.70000000E+00  1.70000000E+00  1.70000000E+00
  1.55000000E+00  1.70000000E+00  1.70000000E+00  1.70000000E+00  1.70000000E+00
  1.70000000E+00  1.30000000E+00  1.30000000E+00  1.30000000E+00  1.30000000E+00
  1.30000000E+00  1.30000000E+00  1.30000000E+00  1.30000000E+00  1.30000000E+00
  1.30000000E+00  1.30000000E+00  1.30000000E+00  1.30000000E+00  1.30000000E+00
  1.30000000E+00  1.30000000E+00  1.30000000E+00  1.30000000E+00  1.70000000E+00
  1.70000000E+00  1.70000000E+00  1.70000000E+00  1.70000000E+00  1.70000000E+00
  1.70000000E+00  1.55000000E+00  1.70000000E+00  1.70000000E+00  1.70000000E+00
  1.70000000E+00  1.70000000E+00  1.30000000E+00  1.30000000E+00  1.30000000E+00
  1.30000000E+00  1.30000000E+00  1.30000000E+00  1.30000000E+00  1.30000000E+00
  1.30000000E+00  1.30000000E+00  1.30000000E+00  1.30000000E+00  1.30000000E+00
  1.30000000E+00  1.30000000E+00  1.30000000E+00  1.30000000E+00  1.30000000E+00
  1.70000000E+00  1.70000000E+00  1.70000000E+00  1.70000000E+00  1.70000000E+00
  1.70000000E+00  1.70000000E+00  1.55000000E+00  1.70000000E+00  1.70000000E+00
  1.70000000E+00  1.70000000E+00  1.70000000E+00  1.30000000E+00  1.30000000E+00
  1.30000000E+00  1.30000000E+00  1.30000000E+00  1.30000000E+00  1.30000000E+00
  1.30000000E+00  1.30000000E+00  1.30000000E+00  1.30000000E+00  1.30000000E+00
  1.30000000E+00  1.30000000E+00  1.30000000E+00  1.30000000E+00  1.30000000E+00
  1.30000000E+00  1.70000000E+00  1.70000000E+00  1.70000000E+00  1.70000000E+00
  1.70000000E+00  1.70000000E+00  1.70000000E+00  1.55000000E+00  1.70000000E+00
  1.70000000E+00  1.70000000E+00  1.70000000E+00  1.70000000E+00  1.30000000E+00
  1.30000000E+00  1.30000000E+00  1.30000000E+00  1.30000000E+00  1.30000000E+00
  1.30000000E+00  1.30000000E+00  1.30000000E+00  1.30000000E+00  1.30000000E+00
  1.30000000E+00  1.30000000E+00  1.30000000E+00  1.30000000E+00  1.30000000E+00
  1.30000000E+00  1.30000000E+00  1.70000000E+00  1.70000000E+00  1.70000000E+00
  1.70000000E+00  1.70000000E+00  1.70000000E+00  1.70000000E+00  1.55000000E+00
  1.70000000E+00  1.70000000E+00  1.70000000E+00  1.70000000E+00  1.70000000E+00
  1.30000000E+00  1.30000000E+00  1.30000000E+00  1.30000000E+00  1.30000000E+00
  1.30000000E+00  1.30000000E+00  1.30000000E+00  1.30000000E+00  1.30000000E+00
  1.30000000E+00  1.30000000E+00  1.30000000E+00  1.30000000E+00  1.30000000E+00
  1.30000000E+00  1.30000000E+00  1.30000000E+00  1.70000000E+00  1.70000000E+00
  1.70000000E+00  1.70000000E+00  1.70000000E+00  1.70000000E+00  1.70000000E+00
  1.55000000E+00  1.70000000E+00  1.70000000E+00  1.70000000E+00  1.70000000E+00
  1.70000000E+00  1.30000000E+00  1.30000000E+00  1.30000000E+00  1.30000000E+00
  1.30000000E+00  1.30000000E+00  1.30000000E+00  1.30000000E+00  1.30000000E+00
  1.30000000E+00  1.30000000E+00  1.30000000E+00  1.30000000E+00  1.30000000E+00
  1.30000000E+00  1.30000000E+00  1.30000000E+00  1.30000000E+00  1.70000000E+00
  1.70000000E+00  1.70000000E+00  1.70000000E+00  1.70000000E+00  1.70000000E+00
  1.70000000E+00  1.55000000E+00  1.70000000E+00  1.70000000E+00  1.70000000E+00
  1.70000000E+00  1.70000000E+00  1.30000000E+00  1.30000000E+00  1.30000000E+00
  1.30000000E+00  1.30000000E+00  1.30000000E+00  1.30000000E+00  1.30000000E+00
  1.30000000E+00  1.30000000E+00  1.30000000E+00  1.30000000E+00  1.30000000E+00
  1.30000000E+00  1.30000000E+00  1.30000000E+00  1.30000000E+00  1.30000000E+00
  1.70000000E+00  1.70000000E+00  1.70000000E+00  1.70000000E+00  1.70000000E+00
  1.70000000E+00  1.70000000E+00  1.55000000E+00  1.70000000E+00  1.70000000E+00
  1.70000000E+00  1.70000000E+00  1.70000000E+00  1.30000000E+00  1.30000000E+00
  1.70000000E+00  1.30000000E+00  1.30000000E+00  1.30000000E+00  1.30000000E+00
  1.30000000E+00  1.30000000E+00  1.30000000E+00  1.30000000E+00  1.30000000E+00
  1.30000000E+00  1.30000000E+00  1.30000000E+00  1.30000000E+00  1.30000000E+00
  1.30000000E+00  1.30000000E+00  1.30000000E+00  1.30000000E+00  1.30000000E+00
  1.30000000E+00  1.30000000E+00  1.30000000E+00
%FLAG SCREEN                                                                    
%FORMAT(5E16.8)                                                                 
  7.20000000E-01  7.20000000E-01  7.20000000E-01  7.20000000E-01  7.20000000E-01
  7.20000000E-01  7.20000000E-01  7.90000000E-01  7.20000000E-01  7.20000000E-01
  7.20000000E-01  7.20000000E-01  7.20000000E-01  7.20000000E-01  8.50000000E-01
  8.50000000E-01  8.50000000E-01  8.50000000E-01  8.50000000E-01  8.50000000E-01
  8.50000000E-01  8.50000000E-01  8.50000000E-01  8.50000000E-01  8.50000000E-01
  8.50000000E-01  8.50000000E-01  8.50000000E-01  8.50000000E-01  8.50000000E-01
  8.50000000E-01  8.50000000E-01  7.20000000E-01  7.20000000E-01  7.20000000E-01
  7.20000000E-01  7.20000000E-01  7.20000000E-01  7.20000000E-01  7.90000000E-01
  7.20000000E-01  7.20000000E-01  7.20000000E-01  7.20000000E-01  7.20000000E-01
  8.50000000E-01  8.50000000E-01  8.50000000E-01  8.50000000E-01  8.50000000E-01
  8.50000000E-01  8.50000000E-01  8.50000000E-01  8.50000000E-01  8.50000000E-01
  8.50000000E-01  8.50000000E-01  8.50000000E-01  8.50000000E-01  8.50000000E-01
  8.50000000E-01  8.50000000E-01  8.50000000E-01  7.20000000E-01  7.20000000E-01
  7.20000000E-01  7.20000000E-01  7.20000000E-01  7.20000000E-01  7.20000000E-01
  7.90000000E-01  7.20000000E-01  7.20000000E-01  7.20000000E-01  7.20000000E-01
  7.20000000E-01  8.50000000E-01  8.50000000E-01  8.50000000E-01  8.50000000E-01
  8.50000000E-01  8.50000000E-01  8.50000000E-01  8.50000000E-01  8.50000000E-01
  8.50000000E-01  8.50000000E-01  8.50000000E-01  8.50000000E-01  8.50000000E-01
  8.50000000E-01  8.50000000E-01  8.50000000E-01  8.50000000E-01  7.20000000E-01
  7.20000000E-01  7.20000000E-01  7.20000000E-01  7.20000000E-01  7.20000000E-01
  7.20000000E-01  7.90000000E-01  7.20000000E-01  7.20000000E-01  7.20000000E-01
  7.20000000E-01  7.20000000E-01  8.50000000E-01  8.50000000E-01  8.50000000E-01
  8.50000000E-01  8.50000000E-01  8.50000000E-01  8.50000000E-01  8.50000000E-01
  8.50000000E-01  8.50000000E-01  8.50000000E-01  8.50000000E-01  8.50000000E-01
  8.50000000E-01  8.50000000E-01  8.50000000E-01  8.50000000E-01  8.50000000E-01
  7.20000000E-01  7.20000000E-01  7.20000000E-01  7.20000000E-01  7.20000000E-01
  7.20000000E-01  7.20000000E-01  7.90000000E-01  7.20000000E-01  7.20000000E-01
  7.20000000E-01  7.20000000E-01  7.20000000E-01  8.50000000E-01  8.50000000E-01
  8.50000000E-01  8.50000000E-01  8.50000000E-01  8.50000000E-01  8.50000000E-01
  8.50000000E-01  8.50000000E-01  8.50000000E-01  8.50000000E-01  8.50000000E-01
  8.50000000E-01  8.50000000E-01  8.50000000E-01  8.50000000E-01  8.50000000E-01
  8.50000000E-01  7.20000000E-01  7.20000000E-01  7.20000000E-01  7.20000000E-01
  7.20000000E-01  7.20000000E-01  7.20000000E-01  7.90000000E-01  7.20000000E-01
  7.20000000E-01  7.20000000E-01  7.20000000E-01  7.20000000E-01  8.50000000E-01
  8.50000000E-01  8.50000000E-01  8.50000000E-01  8.50000000E-01  8.50000000E-01
  8.50000000E-01  8.50000000E-01  8.50000000E-01  8.50000000E-01  8.50000000E-01
  8.50000000E-01  8.50000000E-01  8.50000000E-01  8.50000000E-01  8.50000000E-01
  8.50000000E-01  8.50000000E-01  7.20000000E-01  7.20000000E-01  7.20000000E-01
  7.20000000E-01  7.20000000E-01  7.20000000E-01  7.20000000E-01  7.90000000E-01
  7.20000000E-01  7.20000000E-01  7.20000000E-01  7.20000000E-01  7.20000000E-01
  8.50000000E-01  8.50000000E-01  8.50000000E-01  8.50000000E-01  8.50000000E-01
  8.50000000E-01  8.50000000E-01  8.50000000E-01  8.50000000E-01  8.50000000E-01
  8.50000000E-01  8.50000000E-01  8.50000000E-01  8.50000000E-01  8.50000000E-01
  8.50000000E-01  8.50000000E-01  8.50000000E-01  7.20000000E-01  7.20000000E-01
  7.20000000E-01  7.20000000E-01  7.20000000E-01  7.20000000E-01  7.20000000E-01
  7.90000000E-01  7.20000000E-01  7.20000000E-01  7.20000000E-01  7.20000000E-01
  7.20000000E-01  8.50000000E-01  8.50000000E-01  8.50000000E-01  8.50000000E-01
  8.50000000E-01  8.50000000E-01  8.50000000E-01  8.50000000E-01  8.50000000E-01
  8.50000000E-01  8.50000000E-01  8.50000000E-01  8.50000000E-01  8.50000000E-01
  8.50000000E-01  8.50000000E-01  8.50000000E-01  8.50000000E-01  7.20000000E-01
  7.20000000E-01  7.20000000E-01  7.20000000E-01  7.20000000E-01  7.20000000E-01
  7.20000000E-01  7.90000000E-01  7.20000000E-01  7.20000000E-01  7.20000000E-01
  7.20000000E-01  7.20000000E-01  8.50000000E-01  8.50000000E-01  8.50000000E-01
  8.50000000E-01  8.50000000E-01  8.50000000E-01  8.50000000E-01  8.50000000E-01
  8.50000000E-01  8.50000000E-01  8.50000000E-01  8.50000000E-01  8.50000000E-01
  8.50000000E-01  8.50000000E-01  8.50000000E-01  8.50000000E-01  8.50000000E-01
  7.20000000E-01  7.20000000E-01  7.20000000E-01  7.20000000E-01  7.20000000E-01
  7.20000000E-01  7.20000000E-01  7.90000000E-01  7.20000000E-01  7.20000000E-01
  7.20000000E-01  7.20000000E-01  7.20000000E-01  8.50000000E-01  8.50000000E-01
  8.50000000E-01  8.50000000E-01  8.50000000E-01  8.50000000E-01  8.50000000E-01
  8.50000000E-01  8.50000000E-01  8.50000000E-01  8.50000000E-01  8.50000000E-01
  8.50000000E-01  8.50000000E-01  8.50000000E-01  8.50000000E-01  8.50000000E-01
  8.50000000E-01  7.20000000E-01  7.20000000E-01  7.20000000E-01  7.20000000E-01
  7.20000000E-01  7.20000000E-01  7.20000000E-01  7.90000000E-01  7.20000000E-01
  7.20000000E-01  7.20000000E-01  7.20000000E-01  7.20000000E-01  8.50000000E-01
  8.50000000E-01  8.50000000E-01  8.50000000E-01  8.50000000E-01  8.50000000E-01
  8.50000000E-01  8.50000000E-01  8.50000000E-01  8.50000000E-01  8.50000000E-01
  8.50000000E-01  8.50000000E-01  8.50000000E-01  8.50000000E-01  8.50000000E-01
  8.50000000E-01  8.50000000E-01  7.20000000E-01  7.20000000E-01  7.20000000E-01
  7.20000000E-01  7.20000000E-01  7.20000000E-01  7.20000000E-01  7.90000000E-01
  7.20000000E-01  7.20000000E-01  7.20000000E-01  7.20000000E-01  7.20000000E-01
  8.50000000E-01  8.50000000E-01  8.50000000E-01  8.50000000E-01  8.50000000E-01
  8.50000000E-01  8.50000000E-01  8.50000000E-01  8.50000000E-01  8.50000000E-01
  8.50000000E-01  8.50000000E-01  8.50000000E-01  8.50000000E-01  8.50000000E-01
  8.50000000E-01  8.50000000E-01  8.50000000E-01  7.20000000E-01  7.20000000E-01
  7.20000000E-01  7.20000000E-01  7.20000000E-01  7.20000000E-01  7.20000000E-01
  7.90000000E-01  7.20000000E-01  7.20000000E-01  7.20000000E-01  7.20000000E-01
  7.20000000E-01  8.50000000E-01  8.50000000E-01  8.50000000E-01  8.50000000E-01
  8.50000000E-01  8.50000000E-01  8.50000000E-01  8.50000000E-01  8.50000000E-01
  8.50000000E-01  8.50000000E-01  8.50000000E-01  8.50000000E-01  8.50000000E-01
  8.50000000E-01  8.50000000E-01  8.50000000E-01  8.50000000E-01  7.20000000E-01
  7.20000000E-01  7.20000000E-01  7.20000000E-01  7.20000000E-01  7.20000000E-01
  7.20000000E-01  7.90000000E-01  7.20000000E-01  7.20000000E-01  7.20000000E-01
  7.20000000E-01  7.20000000E-01  8.50000000E-01  8.50000000E-01  8.50000000E-01
  8.50000000E-01  8.50000000E-01  8.50000000E-01  8.50000000E-01  8.50000000E-01
  8.50000000E-01  8.50000000E-01  8.50000000E-01  8.50000000E-01  8.50000000E-01
  8.50000000E-01  8.50000000E-01  8.50000000E-01  8.50000000E-01  8.50000000E-01
  7.20000000E-01  7.20000000E-01  7.20000000E-01  7.20000000E-01  7.20000000E-01
  7.20000000E-01  7.20000000E-01  7.90000000E-01  7.20000000E-01  7.20000000E-01
  7.20000000E-01  7.20000000E-01  7.20000000E-01  8.50000000E-01  8.50000000E-01
  8.50000000E-01  8.50000000E-01  8.50000000E-01  8.50000000E-01  8.50000000E-01
  8.50000000E-01  8.50000000E-01  8.50000000E-01  8.50000000E-01  8.50000000E-01
  8.50000000E-01  8.50000000E-01  8.50000000E-01  8.50000000E-01  8.50000000E-01
  8.50000000E-01  7.20000000E-01  7.20000000E-01  7.20000000E-01  7.20000000E-01
  7.20000000E-01  7.20000000E-01  7.20000000E-01  7.90000000E-01  7.20000000E-01
  7.20000000E-01  7.20000000E-01  7.20000000E-01  7.20000000E-01  8.50000000E-01
  8.50000000E-01  8.50000000E-01  8.50000000E-01  8.50000000E-01  8.50000000E-01
  8.50000000E-01  8.50000000E-01  8.50000000E-01  8.50000000E-01  8.50000000E-01
  8.50000000E-01  8.50000000E-01  8.50000000E-01  8.50000000E-01  8.50000000E-01
  8.50000000E-01  8.50000000E-01  7.20000000E-01  7.20000000E-01  7.20000000E-01
  7.20000000E-01  7.20000000E-01  7.20000000E-01  7.20000000E-01  7.90000000E-01
  7.20000000E-01  7.20000000E-01  7.20000000E-01  7.20000000E-01  7.20000000E-01
  8.50000000E-01  8.50000000E-01  8.50000000E-01  8.50000000E-01  8.50000000E-01
  8.50000000E-01  8.50000000E-01  8.50000000E-01  8.50000000E-01  8.50000000E-01
  8.50000000E-01  8.50000000E-01  8.50000000E-01  8.50000000E-01  8.50000000E-01
  8.50000000E-01  8.50000000E-01  8.50000000E-01  7.20000000E-01  7.20000000E-01
  7.20000000E-01  7.20000000E-01  7.20000000E-01  7.20000000E-01  7.20000000E-01
  7.90000000E-01  7.20000000E-01  7.20000000E-01  7.20000000E-01  7.20000000E-01
  7.20000000E-01  8.50000000E-01  8.50000000E-01  8.50000000E-01  8.50000000E-01
  8.50000000E-01  8.50000000E-01  8.50000000E-01  8.50000000E-01  8.50000000E-01
  8.50000000E-01  8.50000000E-01  8.50000000E-01  8.50000000E-01  8.50000000E-01
  8.50000000E-01  8.50000000E-01  8.50000000E-01  8.50000000E-01  7.20000000E-01
  7.20000000E-01  7.20000000E-01  7.20000000E-01  7.20000000E-01  7.20000000E-01
  7.20000000E-01  7.90000000E-01  7.20000000E-01  7.20000000E-01  7.20000000E-01
  7.20000000E-01  7.20000000E-01  8.50000000E-01  8.50000000E-01  8.50000000E-01
  8.50000000E-01  8.50000000E-01  8.50000000E-01  8.50000000E-01  8.50000000E-01
  8.50000000E-01  8.50000000E-01  8.50000000E-01  8.50000000E-01  8.50000000E-01
  8.50000000E-01  8.50000000E-01  8.50000000E-01  8.50000000E-01  8.50000000E-01
  7.20000000E-01  7.20000000E-01  7.20000000E-01  7.20000000E-01  7.20000000E-01
  7.20000000E-01  7.20000000E-01  7.90000000E-01  7.20000000E-01  7.20000000E-01
  7.20000000E-01  7.20000000E-01  7.20000000E-01  8.50000000E-01  8.50000000E-01
  7.20000000E-01  8.50000000E-01  8.50000000E-01  8.50000000E-01  8.50000000E-01
  8.50000000E-01  8.50000000E-01  8.50000000E-01  8.50000000E-01  8.50000000E-01
  8.50000000E-01  8.50000000E-01  8.50000000E-01  8.50000000E-01  8.50000000E-01
  8.50000000E-01  8.50000000E-01  8.50000000E-01  8.50000000E-01  8.50000000E-01
  8.50000000E-01  8.50000000E-01  8.50000000E-01
%FLAG IPOL                                                                      
%FORMAT(1I8)                                                                    
       0
