%VERSION  VERSION_STAMP = V0001.000  DATE = 08/19/26  13:06:24                  
%FLAG TITLE                                                                     
%FORMAT(20a4)                                                                   
POL                                                                             
%FLAG POINTERS                                                                  
%FORMAT(10I8)                                                                   
     318       6     186     141     402     210     740     278       0       0
    1880       1     141     210     278       7      13      11       6       0
       0       0       0       0       0       0       0       0     318       0
       0
%FLAG ATOM_NAME                                                                 
%FORMAT(20a4)                                                                   
C1  C2  C3  C4  C5  C6  C7  N1  C8  C9  C10 C11 C12 C13 H1  H2  H3  H4  H5  H6  
H7  H8  H9  H10 H11 H12 H13 H14 H15 H16 H17 H18 C14 C15 C16 C17 C18 C19 C20 N2  
C21 C22 C23 C24 C25 H19 H20 H21 H22 H23 H24 H25 H26 H27 H28 H29 H30 H31 H32 H33 
H34 H35 H36 C26 C27 C28 C29 C30 C31 C32 N3  C33 C34 C35 C36 C37 H37 H38 H39 H40 
H41 H42 H43 H44 H45 H46 H47 H48 H49 H50 H51 H52 H53 H54 C38 C39 C40 C41 C42 C43 
C44 N4  C45 C46 C47 C48 C49 H55 H56 H57 H58 H59 H60 H61 H62 H63 H64 H65 H66 H67 
H68 H69 H70 H71 H72 C50 C51 C52 C53 C54 C55 C56 N5  C57 C58 C59 C60 C61 H73 H74 
H75 H76 H77 H78 H79 H80 H81 H82 H83 H84 H85 H86 H87 H88 H89 H90 C62 C63 C64 C65 
C66 C67 C68 N6  C69 C70 C71 C72 C73 H91 H92 H93 H94 H95 H96 H97 H98 H99 H100H101
H102H103H104H105H106H107H108C74 C75 C76 C77 C78 C79 C80 N7  C81 C82 C83 C84 C85 
H109H110H111H112H113H114H115H116H117H118H119H120H121H122H123H124H125H126C86 C87 
C88 C89 C90 C91 C92 N8  C93 C94 C95 C96 C97 H127H128H129H130H131H132H133H134H135
H136H137H138H139H140H141H142H143H144C98 C99 C100C101C102C103C104N9  C105C106C107
C108C109H145H146H147H148H149H150H151H152H153H154H155H156H157H158H159H160H161H162
C110C111C112C113C114C115C116N10 C117C118C119C120C121H163H164C122H165H166H167H168
H169H170H171H172H173H174H175H176H177H178H179H180H181H182H183H184H185H186
%FLAG CHARGE                                                                    
%FORMAT(5E16.8)                                                                 
 -1.31681629E+00 -6.60813487E-01 -2.03433757E-01 -2.19330892E+00 -1.79241832E+00
 -3.42878086E+00  3.43009286E+00 -1.10572916E+01  1.64430746E+00  1.64430746E+00
  1.64430746E+00 -1.79241832E+00 -2.19330892E+00 -1.73046250E+00  8.53459643E-01
  8.53459643E-01  1.27257254E+00  2.92715738E+00  2.49893333E+00  1.83746384E+00
  1.83746384E+00  1.86986309E+00  1.86986309E+00  1.86986309E+00  1.86986309E+00
  1.86986309E+00  1.86986309E+00  1.86986309E+00  1.86986309E+00  1.86986309E+00
  2.49893333E+00  2.92715738E+00 -1.31681629E+00 -6.60813487E-01 -2.03433757E-01
 -2.19330892E+00 -1.79241832E+00 -3.42878086E+00  3.43009286E+00 -1.10572916E+01
  1.64430746E+00  1.64430746E+00  1.64430746E+00 -1.79241832E+00 -2.19330892E+00
  8.53459643E-01  8.53459643E-01  1.27257254E+00  2.92715738E+00  2.49893333E+00
  1.83746384E+00  1.83746384E+00  1.86986309E+00  1.86986309E+00  1.86986309E+00
  1.86986309E+00  1.86986309E+00  1.86986309E+00  1.86986309E+00  1.86986309E+00
  1.86986309E+00  2.49893333E+00  2.92715738E+00 -1.31681629E+00 -6.60813487E-01
 -2.03433757E-01 -2.19330892E+00 -1.79241832E+00 -3.42878086E+00  3.43009286E+00
 -1.10572916E+01  1.64430746E+00  1.64430746E+00  1.64430746E+00 -1.79241832E+00
 -2.19330892E+00  8.53459643E-01  8.53459643E-01  1.27257254E+00  2.92715738E+00
  2.49893333E+00  1.83746384E+00  1.83746384E+00  1.86986309E+00  1.86986309E+00
  1.86986309E+00  1.86986309E+00  1.86986309E+00  1.86986309E+00  1.86986309E+00
  1.86986309E+00  1.86986309E+00  2.49893333E+00  2.92715738E+00 -1.31681629E+00
 -6.60813487E-01 -2.03433757E-01 -2.19330892E+00 -1.79241832E+00 -3.42878086E+00
  3.43009286E+00 -1.10572916E+01  1.64430746E+00  1.64430746E+00  1.64430746E+00
 -1.79241832E+00 -2.19330892E+00  8.53459643E-01  8.53459643E-01  1.27257254E+00
  2.92715738E+00  2.49893333E+00  1.83746384E+00  1.83746384E+00  1.86986309E+00
  1.86986309E+00  1.86986309E+00  1.86986309E+00  1.86986309E+00  1.86986309E+00
  1.86986309E+00  1.86986309E+00  1.86986309E+00  2.49893333E+00  2.92715738E+00
 -1.31681629E+00 -6.60813487E-01 -2.03433757E-01 -2.19330892E+00 -1.79241832E+00
 -3.42878086E+00  3.43009286E+00 -1.10572916E+01  1.64430746E+00  1.64430746E+00
  1.64430746E+00 -1.79241832E+00 -2.19330892E+00  8.53459643E-01  8.53459643E-01
  1.27257254E+00  2.92715738E+00  2.49893333E+00  1.83746384E+00  1.83746384E+00
  1.86986309E+00  1.86986309E+00  1.86986309E+00  1.86986309E+00  1.86986309E+00
  1.86986309E+00  1.86986309E+00  1.86986309E+00  1.86986309E+00  2.49893333E+00
  2.92715738E+00 -1.31681629E+00 -6.60813487E-01 -2.03433757E-01 -2.19330892E+00
 -1.79241832E+00 -3.42878086E+00  3.43009286E+00 -1.10572916E+01  1.64430746E+00
  1.64430746E+00  1.64430746E+00 -1.79241832E+00 -2.19330892E+00  8.53459643E-01
  8.53459643E-01  1.27257254E+00  2.92715738E+00  2.49893333E+00  1.83746384E+00
  1.83746384E+00  1.86986309E+00  1.86986309E+00  1.86986309E+00  1.86986309E+00
  1.86986309E+00  1.86986309E+00  1.86986309E+00  1.86986309E+00  1.86986309E+00
  2.49893333E+00  2.92715738E+00 -1.31681629E+00 -6.60813487E-01 -2.03433757E-01
 -2.19330892E+00 -1.79241832E+00 -3.42878086E+00  3.43009286E+00 -1.10572916E+01
  1.64430746E+00  1.64430746E+00  1.64430746E+00 -1.79241832E+00 -2.19330892E+00
  8.53459643E-01  8.53459643E-01  1.27257254E+00  2.92715738E+00  2.49893333E+00
  1.83746384E+00  1.83746384E+00  1.86986309E+00  1.86986309E+00  1.86986309E+00
  1.86986309E+00  1.86986309E+00  1.86986309E+00  1.86986309E+00  1.86986309E+00
  1.86986309E+00  2.49893333E+00  2.92715738E+00 -1.31681629E+00 -6.60813487E-01
 -2.03433757E-01 -2.19330892E+00 -1.79241832E+00 -3.42878086E+00  3.43009286E+00
 -1.10572916E+01  1.64430746E+00  1.64430746E+00  1.64430746E+00 -1.79241832E+00
 -2.19330892E+00  8.53459643E-01  8.53459643E-01  1.27257254E+00  2.92715738E+00
  2.49893333E+00  1.83746384E+00  1.83746384E+00  1.86986309E+00  1.86986309E+00
  1.86986309E+00  1.86986309E+00  1.86986309E+00  1.86986309E+00  1.86986309E+00
  1.86986309E+00  1.86986309E+00  2.49893333E+00  2.92715738E+00 -1.31681629E+00
 -6.60813487E-01 -2.03433757E-01 -2.19330892E+00 -1.79241832E+00 -3.42878086E+00
  3.43009286E+00 -1.10572916E+01  1.64430746E+00  1.64430746E+00  1.64430746E+00
 -1.79241832E+00 -2.19330892E+00  8.53459643E-01  8.53459643E-01  1.27257254E+00
  2.92715738E+00  2.49893333E+00  1.83746384E+00  1.83746384E+00  1.86986309E+00
  1.86986309E+00  1.86986309E+00  1.86986309E+00  1.86986309E+00  1.86986309E+00
  1.86986309E+00  1.86986309E+00  1.86986309E+00  2.49893333E+00  2.92715738E+00
 -1.31681629E+00 -6.60813487E-01 -2.03433757E-01 -2.19330892E+00 -1.79241832E+00
 -3.42878086E+00  3.43009286E+00 -1.10572916E+01  1.64430746E+00  1.64430746E+00
  1.64430746E+00 -1.79241832E+00 -2.19330892E+00  8.53459643E-01  8.53459643E-01
 -1.62112870E+00  1.27257254E+00  2.92715738E+00  2.49893333E+00  1.83746384E+00
  1.83746384E+00  1.86986309E+00  1.86986309E+00  1.86986309E+00  1.86986309E+00
  1.86986309E+00  1.86986309E+00  1.86986309E+00  1.86986309E+00  1.86986309E+00
  2.49893333E+00  2.92715738E+00  8.29169317E-01  8.29169317E-01  8.29169317E-01
  8.29169317E-01  8.29169317E-01  8.29169317E-01
%FLAG ATOMIC_NUMBER                                                             
%FORMAT(10I8)                                                                   
       6       6       6       6       6       6       6       7       6       6
       6       6       6       6       1       1       1       1       1       1
       1       1       1       1       1       1       1       1       1       1
       1       1       6       6       6       6       6       6       6       7
       6       6       6       6       6       1       1       1       1       1
       1       1       1       1       1       1       1       1       1       1
       1       1       1       6       6       6       6       6       6       6
       7       6       6       6       6       6       1       1       1       1
       1       1       1       1       1       1       1       1       1       1
       1       1       1       1       6       6       6       6       6       6
       6       7       6       6       6       6       6       1       1       1
       1       1       1       1       1       1       1       1       1       1
       1       1       1       1       1       6       6       6       6       6
       6       6       7       6       6       6       6       6       1       1
       1       1       1       1       1       1       1       1       1       1
       1       1       1       1       1       1       6       6       6       6
       6       6       6       7       6       6       6       6       6       1
       1       1       1       1       1       1       1       1       1       1
       1       1       1       1       1       1       1       6       6       6
       6       6       6       6       7       6       6       6       6       6
       1       1       1       1       1       1       1       1       1       1
       1       1       1       1       1       1       1       1       6       6
       6       6       6       6       6       7       6       6       6       6
       6       1       1       1       1       1       1       1       1       1
       1       1       1       1       1       1       1       1       1       6
       6       6       6       6       6       6       7       6       6       6
       6       6       1       1       1       1       1       1       1       1
       1       1       1       1       1       1       1       1       1       1
       6       6       6       6       6       6       6       7       6       6
       6       6       6       1       1       6       1       1       1       1
       1       1       1       1       1       1       1       1       1       1
       1       1       1       1       1       1       1       1
%FLAG MASS                                                                      
%FORMAT(5E16.8)                                                                 
  1.20100000E+01  1.20100000E+01  1.20100000E+01  1.20100000E+01  1.20100000E+01
  1.20100000E+01  1.20100000E+01  1.40100000E+01  1.20100000E+01  1.20100000E+01
  1.20100000E+01  1.20100000E+01  1.20100000E+01  1.20100000E+01  1.00800000E+00
  1.00800000E+00  1.00800000E+00  1.00800000E+00  1.00800000E+00  1.00800000E+00
  1.00800000E+00  1.00800000E+00  1.00800000E+00  1.00800000E+00  1.00800000E+00
  1.00800000E+00  1.00800000E+00  1.00800000E+00  1.00800000E+00  1.00800000E+00
  1.00800000E+00  1.00800000E+00  1.20100000E+01  1.20100000E+01  1.20100000E+01
  1.20100000E+01  1.20100000E+01  1.20100000E+01  1.20100000E+01  1.40100000E+01
  1.20100000E+01  1.20100000E+01  1.20100000E+01  1.20100000E+01  1.20100000E+01
  1.00800000E+00  1.00800000E+00  1.00800000E+00  1.00800000E+00  1.00800000E+00
  1.00800000E+00  1.00800000E+00  1.00800000E+00  1.00800000E+00  1.00800000E+00
  1.00800000E+00  1.00800000E+00  1.00800000E+00  1.00800000E+00  1.00800000E+00
  1.00800000E+00  1.00800000E+00  1.00800000E+00  1.20100000E+01  1.20100000E+01
  1.20100000E+01  1.20100000E+01  1.20100000E+01  1.20100000E+01  1.20100000E+01
  1.40100000E+01  1.20100000E+01  1.20100000E+01  1.20100000E+01  1.20100000E+01
  1.20100000E+01  1.00800000E+00  1.00800000E+00  1.00800000E+00  1.00800000E+00
  1.00800000E+00  1.00800000E+00  1.00800000E+00  1.00800000E+00  1.00800000E+00
  1.00800000E+00  1.00800000E+00  1.00800000E+00  1.00800000E+00  1.00800000E+00
  1.00800000E+00  1.00800000E+00  1.00800000E+00  1.00800000E+00  1.20100000E+01
  1.20100000E+01  1.20100000E+01  1.20100000E+01  1.20100000E+01  1.20100000E+01
  1.20100000E+01  1.40100000E+01  1.20100000E+01  1.20100000E+01  1.20100000E+01
  1.20100000E+01  1.20100000E+01  1.00800000E+00  1.00800000E+00  1.00800000E+00
  1.00800000E+00  1.00800000E+00  1.00800000E+00  1.00800000E+00  1.00800000E+00
  1.00800000E+00  1.00800000E+00  1.00800000E+00  1.00800000E+00  1.00800000E+00
  1.00800000E+00  1.00800000E+00  1.00800000E+00  1.00800000E+00  1.00800000E+00
  1.20100000E+01  1.20100000E+01  1.20100000E+01  1.20100000E+01  1.20100000E+01
  1.20100000E+01  1.20100000E+01  1.40100000E+01  1.20100000E+01  1.20100000E+01
  1.20100000E+01  1.20100000E+01  1.20100000E+01  1.00800000E+00  1.00800000E+00
  1.00800000E+00  1.00800000E+00  1.00800000E+00  1.00800000E+00  1.00800000E+00
  1.00800000E+00  1.00800000E+00  1.00800000E+00  1.00800000E+00  1.00800000E+00
  1.00800000E+00  1.00800000E+00  1.00800000E+00  1.00800000E+00  1.00800000E+00
  1.00800000E+00  1.20100000E+01  1.20100000E+01  1.20100000E+01  1.20100000E+01
  1.20100000E+01  1.20100000E+01  1.20100000E+01  1.40100000E+01  1.20100000E+01
  1.20100000E+01  1.20100000E+01  1.20100000E+01  1.20100000E+01  1.00800000E+00
  1.00800000E+00  1.00800000E+00  1.00800000E+00  1.00800000E+00  1.00800000E+00
  1.00800000E+00  1.00800000E+00  1.00800000E+00  1.00800000E+00  1.00800000E+00
  1.00800000E+00  1.00800000E+00  1.00800000E+00  1.00800000E+00  1.00800000E+00
  1.00800000E+00  1.00800000E+00  1.20100000E+01  1.20100000E+01  1.20100000E+01
  1.20100000E+01  1.20100000E+01  1.20100000E+01  1.20100000E+01  1.40100000E+01
  1.20100000E+01  1.20100000E+01  1.20100000E+01  1.20100000E+01  1.20100000E+01
  1.00800000E+00  1.00800000E+00  1.00800000E+00  1.00800000E+00  1.00800000E+00
  1.00800000E+00  1.00800000E+00  1.00800000E+00  1.00800000E+00  1.00800000E+00
  1.00800000E+00  1.00800000E+00  1.00800000E+00  1.00800000E+00  1.00800000E+00
  1.00800000E+00  1.00800000E+00  1.00800000E+00  1.20100000E+01  1.20100000E+01
  1.20100000E+01  1.20100000E+01  1.20100000E+01  1.20100000E+01  1.20100000E+01
  1.40100000E+01  1.20100000E+01  1.20100000E+01  1.20100000E+01  1.20100000E+01
  1.20100000E+01  1.00800000E+00  1.00800000E+00  1.00800000E+00  1.00800000E+00
  1.00800000E+00  1.00800000E+00  1.00800000E+00  1.00800000E+00  1.00800000E+00
  1.00800000E+00  1.00800000E+00  1.00800000E+00  1.00800000E+00  1.00800000E+00
  1.00800000E+00  1.00800000E+00  1.00800000E+00  1.00800000E+00  1.20100000E+01
  1.20100000E+01  1.20100000E+01  1.20100000E+01  1.20100000E+01  1.20100000E+01
  1.20100000E+01  1.40100000E+01  1.20100000E+01  1.20100000E+01  1.20100000E+01
  1.20100000E+01  1.20100000E+01  1.00800000E+00  1.00800000E+00  1.00800000E+00
  1.00800000E+00  1.00800000E+00  1.00800000E+00  1.00800000E+00  1.00800000E+00
  1.00800000E+00  1.00800000E+00  1.00800000E+00  1.00800000E+00  1.00800000E+00
  1.00800000E+00  1.00800000E+00  1.00800000E+00  1.00800000E+00  1.00800000E+00
  1.20100000E+01  1.20100000E+01  1.20100000E+01  1.20100000E+01  1.20100000E+01
  1.20100000E+01  1.20100000E+01  1.40100000E+01  1.20100000E+01  1.20100000E+01
  1.20100000E+01  1.20100000E+01  1.20100000E+01  1.00800000E+00  1.00800000E+00
  1.20100000E+01  1.00800000E+00  1.00800000E+00  1.00800000E+00  1.00800000E+00
  1.00800000E+00  1.00800000E+00  1.00800000E+00  1.00800000E+00  1.00800000E+00
  1.00800000E+00  1.00800000E+00  1.00800000E+00  1.00800000E+00  1.00800000E+00
  1.00800000E+00  1.00800000E+00  1.00800000E+00  1.00800000E+00  1.00800000E+00
  1.00800000E+00  1.00800000E+00  1.00800000E+00
%FLAG ATOM_TYPE_INDEX                                                           
%FORMAT(10I8)                                                                   
       1       1       2       2       2       2       1       3       1       1
       1       2       2       1       4       4       4       5       5       6
       6       6       6       6       6       6       6       6       6       6
       5       5       1       1       2       2       2       2       1       3
       1       1       1       2       2       4       4       4       5       5
       6       6       6       6       6       6       6       6       6       6
       6       5       5       1       1       2       2       2       2       1
       3       1       1       1       2       2       4       4       4       5
       5       6       6       6       6       6       6       6       6       6
       6       6       5       5       1       1       2       2       2       2
       1       3       1       1       1       2       2       4       4       4
       5       5       6       6       6       6       6       6       6       6
       6       6       6       5       5       1       1       2       2       2
       2       1       3       1       1       1       2       2       4       4
       4       5       5       6       6       6       6       6       6       6
       6       6       6       6       5       5       1       1       2       2
       2       2       1       3       1       1       1       2       2       4
       4       4       5       5       6       6       6       6       6       6
       6       6       6       6       6       5       5       1       1       2
       2       2       2       1       3       1       1       1       2       2
       4       4       4       5       5       6       6       6       6       6
       6       6       6       6       6       6       5       5       1       1
       2       2       2       2       1       3       1       1       1       2
       2       4       4       4       5       5       6       6       6       6
       6       6       6       6       6       6       6       5       5       1
       1       2       2       2       2       1       3       1       1       1
       2       2       4       4       4       5       5       6       6       6
       6       6       6       6       6       6       6       6       5       5
       1       1       2       2       2       2       1       3       1       1
       1       2       2       4       4       1       4       5       5       6
       6       6       6       6       6       6       6       6       6       6
       5       5       4       4       4       4       4       4
%FLAG NUMBER_EXCLUDED_ATOMS                                                     
%FORMAT(10I8)                                                                   
      15      21      17      10      10      13      19      15      13      12
      11       6       5       7       6       5       4       1       1       1
       1       2       1       1       2       1       1       2       1       1
       1       1      11      17      16      10      10      13      19      15
      13      12      11       6       5       3       2       4       1       1
       1       1       2       1       1       2       1       1       2       1
       1       1       1      11      17      16      10      10      13      19
      15      13      12      11       6       5       3       2       4       1
       1       1       1       2       1       1       2       1       1       2
       1       1       1       1      11      17      16      10      10      13
      19      15      13      12      11       6       5       3       2       4
       1       1       1       1       2       1       1       2       1       1
       2       1       1       1       1      11      17      16      10      10
      13      19      15      13      12      11       6       5       3       2
       4       1       1       1       1       2       1       1       2       1
       1       2       1       1       1       1      11      17      16      10
      10      13      19      15      13      12      11       6       5       3
       2       4       1       1       1       1       2       1       1       2
       1       1       2       1       1       1       1      11      17      16
      10      10      13      19      15      13      12      11       6       5
       3       2       4       1       1       1       1       2       1       1
       2       1       1       2       1       1       1       1      11      17
      16      10      10      13      19      15      13      12      11       6
       5       3       2       4       1       1       1       1       2       1
       1       2       1       1       2       1       1       1       1      11
      17      16      10      10      13      19      15      13      12      11
       6       5       3       2       4       1       1       1       1       2
       1       1       2       1       1       2       1       1       1       1
      11      14      16      10      10      13      19      15      13      12
      11       6       5       3       2       4       3       1       1       1
       1       2       1       1       2       1       1       2       1       1
       1       1       2       1       1       2       1       1
%FLAG NONBONDED_PARM_INDEX                                                      
%FORMAT(10I8)                                                                   
       1       2       4       7      11      16       2       3       5       8
      12      17       4       5       6       9      13      18       7       8
       9      10      14      19      11      12      13      14      15      20
      16      17      18      19      20      21
%FLAG RESIDUE_LABEL                                                             
%FORMAT(20a4)                                                                   
POL 
%FLAG RESIDUE_POINTER                                                           
%FORMAT(10I8)                                                                   
       1
%FLAG BOND_FORCE_CONSTANT                                                       
%FORMAT(5E16.8)                                                                 
  2.28890000E+02  3.45250000E+02  2.43910000E+02  3.54250000E+02  3.60690000E+02
  2.15860000E+02  3.52860000E+02
%FLAG BOND_EQUIL_VALUE                                                          
%FORMAT(5E16.8)                                                                 
  1.53540000E+00  1.09620000E+00  1.51470000E+00  1.39860000E+00  1.08600000E+00
  1.51670000E+00  1.09110000E+00
%FLAG ANGLE_FORCE_CONSTANT                                                      
%FORMAT(5E16.8)                                                                 
  6.03300000E+01  4.32700000E+01  5.98700000E+01  6.07400000E+01  4.36100000E+01
  6.36700000E+01  4.49000000E+01  6.35300000E+01  4.34800000E+01  7.60200000E+01
  4.67900000E+01  3.58000000E+01  3.56300000E+01
%FLAG ANGLE_EQUIL_VALUE                                                         
%FORMAT(5E16.8)                                                                 
  1.96209999E+00  1.91427794E+00  1.96576518E+00  2.10888224E+00  1.93085858E+00
  2.09474507E+00  2.09230160E+00  2.01882321E+00  1.94447215E+00  1.90869289E+00
  1.88792346E+00  1.88024401E+00  1.91619781E+00
%FLAG DIHEDRAL_FORCE_CONSTANT                                                   
%FORMAT(5E16.8)                                                                 
  2.40000000E-01  5.20000000E-01  1.30000000E-01  3.62500000E+00  1.55555556E-01
  0.00000000E+00  0.00000000E+00  7.00000000E-01  1.56000000E-01  1.20000000E-01
  1.10000000E+00
%FLAG DIHEDRAL_PERIODICITY                                                      
%FORMAT(5E16.8)                                                                 
  2.00000000E+00  3.00000000E+00  3.00000000E+00  2.00000000E+00  3.00000000E+00
  1.00000000E+00  2.00000000E+00  2.00000000E+00  3.00000000E+00  3.00000000E+00
  2.00000000E+00
%FLAG DIHEDRAL_PHASE                                                            
%FORMAT(5E16.8)                                                                 
  3.14159400E+00  0.00000000E+00  0.00000000E+00  3.14159400E+00  0.00000000E+00
  0.00000000E+00  0.00000000E+00  0.00000000E+00  0.00000000E+00  0.00000000E+00
  3.14159400E+00
%FLAG SCEE_SCALE_FACTOR                                                         
%FORMAT(5E16.8)                                                                 
  1.20000000E+00  1.20000000E+00  1.20000000E+00  1.20000000E+00  1.20000000E+00
  1.20000000E+00  1.20000000E+00  1.20000000E+00  1.20000000E+00  1.20000000E+00
  0.00000000E+00
%FLAG SCNB_SCALE_FACTOR                                                         
%FORMAT(5E16.8)                                                                 
  2.00000000E+00  2.00000000E+00  2.00000000E+00  2.00000000E+00  2.00000000E+00
  2.00000000E+00  2.00000000E+00  2.00000000E+00  2.00000000E+00  2.00000000E+00
  0.00000000E+00
%FLAG SOLTY                                                                     
%FORMAT(5E16.8)                                                                 
  0.00000000E+00  0.00000000E+00  0.00000000E+00  0.00000000E+00  0.00000000E+00
  0.00000000E+00
%FLAG LENNARD_JONES_ACOEF                                                       
%FORMAT(5E16.8)                                                                 
  1.02073671E+06  8.43969952E+05  6.96551276E+05  1.11659990E+06  9.02707037E+05
  9.21633655E+05  1.00235148E+05  8.12662403E+04  8.57776131E+04  7.94617769E+03
  9.27554496E+04  7.52549148E+04  8.00843692E+04  7.41026906E+03  6.90855956E+03
  2.19657590E+04  1.74110867E+04  1.40871964E+04  1.35510742E+03  1.27542632E+03
  1.70079100E+02
%FLAG LENNARD_JONES_BCOEF                                                       
%FORMAT(5E16.8)                                                                 
  6.63431737E+02  5.90251928E+02  5.24668528E+02  1.69900948E+03  1.49470322E+03
  3.77949525E+03  1.37787728E+02  1.21392023E+02  3.12100979E+02  2.57122925E+01
  1.24325688E+02  1.09570372E+02  2.82860736E+02  2.32899892E+01  2.10929191E+01
  6.45020662E+01  5.61885732E+01  1.26479587E+02  1.06181419E+01  9.66228818E+00
  3.76172582E+00
%FLAG BONDS_INC_HYDROGEN                                                        
%FORMAT(10I8)                                                                   
       0      42       2       0      45       2       3      48       2       9
      51       5      12      54       5      18      57       7      18      60
       7      24      63       7      24      66       7      24      69       7
      27      72       7      27      75       7      27      78       7      30
      81       7      30      84       7      30      87       7      33      90
       5      36      93       5      39     936       2      39     939       2
      39     942       2      96     135       2      96     138       2      99
     141       2     105     144       5     108     147       5     114     150
       7     114     153       7     120     156       7     120     159       7
     120     162       7     123     165       7     123     168       7     123
     171       7     126     174       7     126     177       7     126     180
       7     129     183       5     132     186       5     189     228       2
     189     231       2     192     234       2     198     237       5     201
     240       5     207     243       7     207     246       7     213     249
       7     213     252       7     213     255       7     216     258       7
     216     261       7     216     264       7     219     267       7     219
     270       7     219     273       7     222     276       5     225     279
       5     282     321       2     282     324       2     285     327       2
     291     330       5     294     333       5     300     336       7     300
     339       7     306     342       7     306     345       7     306     348
       7     309     351       7     309     354       7     309     357       7
     312     360       7     312     363       7     312     366       7     315
     369       5     318     372       5     375     414       2     375     417
       2     378     420       2     384     423       5     387     426       5
     393     429       7     393     432       7     399     435       7     399
     438       7     399     441       7     402     444       7     402     447
       7     402     450       7     405     453       7     405     456       7
     405     459       7     408     462       5     411     465       5     468
     507       2     468     510       2     471     513       2     477     516
       5     480     519       5     486     522       7     486     525       7
     492     528       7     492     531       7     492     534       7     495
     537       7     495     540       7     495     543       7     498     546
       7     498     549       7     498     552       7     501     555       5
     504     558       5     561     600       2     561     603       2     564
     606       2     570     609       5     573     612       5     579     615
       7     579     618       7     585     621       7     585     624       7
     585     627       7     588     630       7     588     633       7     588
     636       7     591     639       7     591     642       7     591     645
       7     594     648       5     597     651       5     654     693       2
     654     696       2     657     699       2     663     702       5     666
     705       5     672     708       7     672     711       7     678     714
       7     678     717       7     678     720       7     681     723       7
     681     726       7     681     729       7     684     732       7     684
     735       7     684     738       7     687     741       5     690     744
       5     747     786       2     747     789       2     750     792       2
     756     795       5     759     798       5     765     801       7     765
     804       7     771     807       7     771     810       7     771     813
       7     774     816       7     774     819       7     774     822       7
     777     825       7     777     828       7     777     831       7     780
     834       5     783     837       5     840     879       2     840     882
       2     843     888       2     849     891       5     852     894       5
     858     897       7     858     900       7     864     903       7     864
     906       7     864     909       7     867     912       7     867     915
       7     867     918       7     870     921       7     870     924       7
     870     927       7     873     930       5     876     933       5     885
     945       2     885     948       2     885     951       2
%FLAG BONDS_WITHOUT_HYDROGEN                                                    
%FORMAT(10I8)                                                                   
       0       3       1       0      39       1       3       6       3       3
      96       1       6       9       4       6      36       4       9      12
       4      12      15       4      15      18       3      15      33       4
      18      21       6      21      24       6      21      27       6      21
      30       6      33      36       4      96      99       1      99     102
       3      99     189       1     102     105       4     102     132       4
     105     108       4     108     111       4     111     114       3     111
     129       4     114     117       6     117     120       6     117     123
       6     117     126       6     129     132       4     189     192       1
     192     195       3     192     282       1     195     198       4     195
     225       4     198     201       4     201     204       4     204     207
       3     204     222       4     207     210       6     210     213       6
     210     216       6     210     219       6     222     225       4     282
     285       1     285     288       3     285     375       1     288     291
       4     288     318       4     291     294       4     294     297       4
     297     300       3     297     315       4     300     303       6     303
     306       6     303     309       6     303     312       6     315     318
       4     375     378       1     378     381       3     378     468       1
     381     384       4     381     411       4     384     387       4     387
     390       4     390     393       3     390     408       4     393     396
       6     396     399       6     396     402       6     396     405       6
     408     411       4     468     471       1     471     474       3     471
     561       1     474     477       4     474     504       4     477     480
       4     480     483       4     483     486       3     483     501       4
     486     489       6     489     492       6     489     495       6     489
     498       6     501     504       4     561     564       1     564     567
       3     564     654       1     567     570       4     567     597       4
     570     573       4     573     576       4     576     579       3     576
     594       4     579     582       6     582     585       6     582     588
       6     582     591       6     594     597       4     654     657       1
     657     660       3     657     747       1     660     663       4     660
     690       4     663     666       4     666     669       4     669     672
       3     669     687       4     672     675       6     675     678       6
     675     681       6     675     684       6     687     690       4     747
     750       1     750     753       3     750     840       1     753     756
       4     753     783       4     756     759       4     759     762       4
     762     765       3     762     780       4     765     768       6     768
     771       6     768     774       6     768     777       6     780     783
       4     840     843       1     843     846       3     843     885       1
     846     849       4     846     876       4     849     852       4     852
     855       4     855     858       3     855     873       4     858     861
       6     861     864       6     861     867       6     861     870       6
     873     876       4
%FLAG ANGLES_INC_HYDROGEN                                                       
%FORMAT(10I8)                                                                   
       0       3      48       2       0      39     936       2       0      39
     939       2       0      39     942       2       3       0      42       2
       3       0      45       2       3      96     135       2       3      96
     138       2       6       3      48       5       6       9      51       7
       6      36      93       7       9      12      54       7      12       9
      51       7      15      12      54       7      15      18      57       9
      15      18      60       9      15      33      90       7      21      18
      57      11      21      18      60      11      21      24      63      11
      21      24      66      11      21      24      69      11      21      27
      72      11      21      27      75      11      21      27      78      11
      21      30      81      11      21      30      84      11      21      30
      87      11      33      36      93       7      36      33      90       7
      39       0      42       2      39       0      45       2      42       0
      45      12      48       3      96       2      57      18      60      13
      63      24      66      13      63      24      69      13      66      24
      69      13      72      27      75      13      72      27      78      13
      75      27      78      13      81      30      84      13      81      30
      87      13      84      30      87      13      96      99     141       2
      99      96     135       2      99      96     138       2      99     189
     228       2      99     189     231       2     102      99     141       5
     102     105     144       7     102     132     186       7     105     108
     147       7     108     105     144       7     111     108     147       7
     111     114     150       9     111     114     153       9     111     129
     183       7     117     114     150      11     117     114     153      11
     117     120     156      11     117     120     159      11     117     120
     162      11     117     123     165      11     117     123     168      11
     117     123     171      11     117     126     174      11     117     126
     177      11     117     126     180      11     129     132     186       7
     132     129     183       7     135      96     138      12     141      99
     189       2     150     114     153      13     156     120     159      13
     156     120     162      13     159     120     162      13     165     123
     168      13     165     123     171      13     168     123     171      13
     174     126     177      13     174     126     180      13     177     126
     180      13     189     192     234       2     192     189     228       2
     192     189     231       2     192     282     321       2     192     282
     324       2     195     192     234       5     195     198     237       7
     195     225     279       7     198     201     240       7     201     198
     237       7     204     201     240       7     204     207     243       9
     204     207     246       9     204     222     276       7     210     207
     243      11     210     207     246      11     210     213     249      11
     210     213     252      11     210     213     255      11     210     216
     258      11     210     216     261      11     210     216     264      11
     210     219     267      11     210     219     270      11     210     219
     273      11     222     225     279       7     225     222     276       7
     228     189     231      12     234     192     282       2     243     207
     246      13     249     213     252      13     249     213     255      13
     252     213     255      13     258     216     261      13     258     216
     264      13     261     216     264      13     267     219     270      13
     267     219     273      13     270     219     273      13     282     285
     327       2     285     282     321       2     285     282     324       2
     285     375     414       2     285     375     417       2     288     285
     327       5     288     291     330       7     288     318     372       7
     291     294     333       7     294     291     330       7     297     294
     333       7     297     300     336       9     297     300     339       9
     297     315     369       7     303     300     336      11     303     300
     339      11     303     306     342      11     303     306     345      11
     303     306     348      11     303     309     351      11     303     309
     354      11     303     309     357      11     303     312     360      11
     303     312     363      11     303     312     366      11     315     318
     372       7     318     315     369       7     321     282     324      12
     327     285     375       2     336     300     339      13     342     306
     345      13     342     306     348      13     345     306     348      13
     351     309     354      13     351     309     357      13     354     309
     357      13     360     312     363      13     360     312     366      13
     363     312     366      13     375     378     420       2     378     375
     414       2     378     375     417       2     378     468     507       2
     378     468     510       2     381     378     420       5     381     384
     423       7     381     411     465       7     384     387     426       7
     387     384     423       7     390     387     426       7     390     393
     429       9     390     393     432       9     390     408     462       7
     396     393     429      11     396     393     432      11     396     399
     435      11     396     399     438      11     396     399     441      11
     396     402     444      11     396     402     447      11     396     402
     450      11     396     405     453      11     396     405     456      11
     396     405     459      11     408     411     465       7     411     408
     462       7     414     375     417      12     420     378     468       2
     429     393     432      13     435     399     438      13     435     399
     441      13     438     399     441      13     444     402     447      13
     444     402     450      13     447     402     450      13     453     405
     456      13     453     405     459      13     456     405     459      13
     468     471     513       2     471     468     507       2     471     468
     510       2     471     561     600       2     471     561     603       2
     474     471     513       5     474     477     516       7     474     504
     558       7     477     480     519       7     480     477     516       7
     483     480     519       7     483     486     522       9     483     486
     525       9     483     501     555       7     489     486     522      11
     489     486     525      11     489     492     528      11     489     492
     531      11     489     492     534      11     489     495     537      11
     489     495     540      11     489     495     543      11     489     498
     546      11     489     498     549      11     489     498     552      11
     501     504     558       7     504     501     555       7     507     468
     510      12     513     471     561       2     522     486     525      13
     528     492     531      13     528     492     534      13     531     492
     534      13     537     495     540      13     537     495     543      13
     540     495     543      13     546     498     549      13     546     498
     552      13     549     498     552      13     561     564     606       2
     564     561     600       2     564     561     603       2     564     654
     693       2     564     654     696       2     567     564     606       5
     567     570     609       7     567     597     651       7     570     573
     612       7     573     570     609       7     576     573     612       7
     576     579     615       9     576     579     618       9     576     594
     648       7     582     579     615      11     582     579     618      11
     582     585     621      11     582     585     624      11     582     585
     627      11     582     588     630      11     582     588     633      11
     582     588     636      11     582     591     639      11     582     591
     642      11     582     591     645      11     594     597     651       7
     597     594     648       7     600     561     603      12     606     564
     654       2     615     579     618      13     621     585     624      13
     621     585     627      13     624     585     627      13     630     588
     633      13     630     588     636      13     633     588     636      13
     639     591     642      13     639     591     645      13     642     591
     645      13     654     657     699       2     657     654     693       2
     657     654     696       2     657     747     786       2     657     747
     789       2     660     657     699       5     660     663     702       7
     660     690     744       7     663     666     705       7     666     663
     702       7     669     666     705       7     669     672     708       9
     669     672     711       9     669     687     741       7     675     672
     708      11     675     672     711      11     675     678     714      11
     675     678     717      11     675     678     720      11     675     681
     723      11     675     681     726      11     675     681     729      11
     675     684     732      11     675     684     735      11     675     684
     738      11     687     690     744       7     690     687     741       7
     693     654     696      12     699     657     747       2     708     672
     711      13     714     678     717      13     714     678     720      13
     717     678     720      13     723     681     726      13     723     681
     729      13     726     681     729      13     732     684     735      13
     732     684     738      13     735     684     738      13     747     750
     792       2     750     747     786       2     750     747     789       2
     750     840     879       2     750     840     882       2     753     750
     792       5     753     756     795       7     753     783     837       7
     756     759     798       7     759     756     795       7     762     759
     798       7     762     765     801       9     762     765     804       9
     762     780     834       7     768     765     801      11     768     765
     804      11     768     771     807      11     768     771     810      11
     768     771     813      11     768     774     816      11     768     774
     819      11     768     774     822      11     768     777     825      11
     768     777     828      11     768     777     831      11     780     783
     837       7     783     780     834       7     786     747     789      12
     792     750     840       2     801     765     804      13     807     771
     810      13     807     771     813      13     810     771     813      13
     816     774     819      13     816     774     822      13     819     774
     822      13     825     777     828      13     825     777     831      13
     828     777     831      13     840     843     888       2     843     840
     879       2     843     840     882       2     843     885     945       2
     843     885     948       2     843     885     951       2     846     843
     888       5     846     849     891       7     846     876     933       7
     849     852     894       7     852     849     891       7     855     852
     894       7     855     858     897       9     855     858     900       9
     855     873     930       7     861     858     897      11     861     858
     900      11     861     864     903      11     861     864     906      11
     861     864     909      11     861     867     912      11     861     867
     915      11     861     867     918      11     861     870     921      11
     861     870     924      11     861     870     927      11     873     876
     933       7     876     873     930       7     879     840     882      12
     885     843     888       2     897     858     900      13     903     864
     906      13     903     864     909      13     906     864     909      13
     912     867     915      13     912     867     918      13     915     867
     918      13     921     870     924      13     921     870     927      13
     924     870     927      13     936      39     939      12     936      39
     942      12     939      39     942      12     945     885     948      12
     945     885     951      12     948     885     951      12
%FLAG ANGLES_WITHOUT_HYDROGEN                                                   
%FORMAT(10I8)                                                                   
       0       3       6       1       0       3      96       3       3       0
      39       3       3       6       9       4       3       6      36       4
       3      96      99       3       6       3      96       1       6       9
      12       6       6      36      33       6       9       6      36       6
       9      12      15       6      12      15      18       4      12      15
      33       6      15      18      21       8      15      33      36       6
      18      15      33       4      18      21      24      10      18      21
      27      10      18      21      30      10      24      21      27      10
      24      21      30      10      27      21      30      10      96      99
     102       1      96      99     189       3      99     102     105       4
      99     102     132       4      99     189     192       3     102      99
     189       1     102     105     108       6     102     132     129       6
     105     102     132       6     105     108     111       6     108     111
     114       4     108     111     129       6     111     114     117       8
     111     129     132       6     114     111     129       4     114     117
     120      10     114     117     123      10     114     117     126      10
     120     117     123      10     120     117     126      10     123     117
     126      10     189     192     195       1     189     192     282       3
     192     195     198       4     192     195     225       4     192     282
     285       3     195     192     282       1     195     198     201       6
     195     225     222       6     198     195     225       6     198     201
     204       6     201     204     207       4     201     204     222       6
     204     207     210       8     204     222     225       6     207     204
     222       4     207     210     213      10     207     210     216      10
     207     210     219      10     213     210     216      10     213     210
     219      10     216     210     219      10     282     285     288       1
     282     285     375       3     285     288     291       4     285     288
     318       4     285     375     378       3     288     285     375       1
     288     291     294       6     288     318     315       6     291     288
     318       6     291     294     297       6     294     297     300       4
     294     297     315       6     297     300     303       8     297     315
     318       6     300     297     315       4     300     303     306      10
     300     303     309      10     300     303     312      10     306     303
     309      10     306     303     312      10     309     303     312      10
     375     378     381       1     375     378     468       3     378     381
     384       4     378     381     411       4     378     468     471       3
     381     378     468       1     381     384     387       6     381     411
     408       6     384     381     411       6     384     387     390       6
     387     390     393       4     387     390     408       6     390     393
     396       8     390     408     411       6     393     390     408       4
     393     396     399      10     393     396     402      10     393     396
     405      10     399     396     402      10     399     396     405      10
     402     396     405      10     468     471     474       1     468     471
     561       3     471     474     477       4     471     474     504       4
     471     561     564       3     474     471     561       1     474     477
     480       6     474     504     501       6     477     474     504       6
     477     480     483       6     480     483     486       4     480     483
     501       6     483     486     489       8     483     501     504       6
     486     483     501       4     486     489     492      10     486     489
     495      10     486     489     498      10     492     489     495      10
     492     489     498      10     495     489     498      10     561     564
     567       1     561     564     654       3     564     567     570       4
     564     567     597       4     564     654     657       3     567     564
     654       1     567     570     573       6     567     597     594       6
     570     567     597       6     570     573     576       6     573     576
     579       4     573     576     594       6     576     579     582       8
     576     594     597       6     579     576     594       4     579     582
     585      10     579     582     588      10     579     582     591      10
     585     582     588      10     585     582     591      10     588     582
     591      10     654     657     660       1     654     657     747       3
     657     660     663       4     657     660     690       4     657     747
     750       3     660     657     747       1     660     663     666       6
     660     690     687       6     663     660     690       6     663     666
     669       6     666     669     672       4     666     669     687       6
     669     672     675       8     669     687     690       6     672     669
     687       4     672     675     678      10     672     675     681      10
     672     675     684      10     678     675     681      10     678     675
     684      10     681     675     684      10     747     750     753       1
     747     750     840       3     750     753     756       4     750     753
     783       4     750     840     843       3     753     750     840       1
     753     756     759       6     753     783     780       6     756     753
     783       6     756     759     762       6     759     762     765       4
     759     762     780       6     762     765     768       8     762     780
     783       6     765     762     780       4     765     768     771      10
     765     768     774      10     765     768     777      10     771     768
     774      10     771     768     777      10     774     768     777      10
     840     843     846       1     840     843     885       3     843     846
     849       4     843     846     876       4     846     843     885       1
     846     849     852       6     846     876     873       6     849     846
     876       6     849     852     855       6     852     855     858       4
     852     855     873       6     855     858     861       8     855     873
     876       6     858     855     873       4     858     861     864      10
     858     861     867      10     858     861     870      10     864     861
     867      10     864     861     870      10     867     861     870      10
%FLAG DIHEDRALS_INC_HYDROGEN                                                    
%FORMAT(10I8)                                                                   
       0       3      96     135       3       0       3      96     138       3
       3       0      39     936       3       3       0      39     939       3
       3       0      39     942       3       3       6       9      51       4
       3       6      36      93       4       3      96      99     141       3
      42       0       3       6       5      45       0       3       6       5
       6       3      96     135       5       6       3      96     138       5
       6       9      12      54       4       6      36      33      90       4
       9       6       3      48       6       9       6      36      93       4
      12      15      18      57       7      12      15      18      60       7
      12      15      33      90       4      15      12       9      51       4
      15      33      36      93       4      18      15      12      54       4
      18      15      33      90       4      18      21      24      63       5
      18      21      24      66       5      18      21      24      69       5
      18      21      27      72       5      18      21      27      75       5
      18      21      27      78       5      18      21      30      81       5
      18      21      30      84       5      18      21      30      87       5
      24      21      18      57       5      24      21      18      60       5
      24      21      27      72       5      24      21      27      75       5
      24      21      27      78       5      24      21      30      81       5
      24      21      30      84       5      24      21      30      87       5
      27      21      18      57       5      27      21      18      60       5
      27      21      24      63       5      27      21      24      66       5
      27      21      24      69       5      27      21      30      81       5
      27      21      30      84       5      27      21      30      87       5
      30      21      18      57       5      30      21      18      60       5
      30      21      24      63       5      30      21      24      66       5
      30      21      24      69       5      30      21      27      72       5
      30      21      27      75       5      30      21      27      78       5
      33      15      12      54       4      33      15      18      57       7
      33      15      18      60       7      36       6       3      48       6
      36       6      -3      48       7      36       6       9      51       4
      39       0       3      48       3      42       0       3      48      10
      42       0       3      96       3      42       0      39     936      10
      42       0      39     939      10      42       0      39     942      10
      45       0       3      48      10      45       0       3      96       3
      45       0      39     936      10      45       0      39     939      10
      45       0      39     942      10      48       3      96      99       3
      48       3      96     135      10      48       3      96     138      10
      51       9      12      54       4      90      33      36      93       4
      96      99     189     228       3      96      99     189     231       3
      99     102     105     144       4      99     102     132     186       4
      99     189     192     234       3     102      99      96     135       5
     102      99      96     138       5     102      99     189     228       5
     102      99     189     231       5     102     105     108     147       4
     102     132     129     183       4     105     102      99     141       6
     105     102     -99     141       7     105     102     132     186       4
     108     111     114     150       7     108     111     114     153       7
     108     111     129     183       4     111     108     105     144       4
     111     129     132     186       4     114     111     108     147       4
     114     111     129     183       4     114     117     120     156       5
     114     117     120     159       5     114     117     120     162       5
     114     117     123     165       5     114     117     123     168       5
     114     117     123     171       5     114     117     126     174       5
     114     117     126     177       5     114     117     126     180       5
     120     117     114     150       5     120     117     114     153       5
     120     117     123     165       5     120     117     123     168       5
     120     117     123     171       5     120     117     126     174       5
     120     117     126     177       5     120     117     126     180       5
     123     117     114     150       5     123     117     114     153       5
     123     117     120     156       5     123     117     120     159       5
     123     117     120     162       5     123     117     126     174       5
     123     117     126     177       5     123     117     126     180       5
     126     117     114     150       5     126     117     114     153       5
     126     117     120     156       5     126     117     120     159       5
     126     117     120     162       5     126     117     123     165       5
     126     117     123     168       5     126     117     123     171       5
     129     111     108     147       4     129     111     114     150       7
     129     111     114     153       7     132     102      99     141       6
     132     102     -99     141       7     132     102     105     144       4
     135      96      99     141      10     135      96      99     189       3
     138      96      99     141      10     138      96      99     189       3
     141      99     189     192       3     141      99     189     228      10
     141      99     189     231      10     144     105     108     147       4
     183     129     132     186       4     189     192     282     321       3
     189     192     282     324       3     192     195     198     237       4
     192     195     225     279       4     192     282     285     327       3
     195     192     189     228       5     195     192     189     231       5
     195     192     282     321       5     195     192     282     324       5
     195     198     201     240       4     195     225     222     276       4
     198     195     192     234       6     198     195    -192     234       7
     198     195     225     279       4     201     204     207     243       7
     201     204     207     246       7     201     204     222     276       4
     204     201     198     237       4     204     222     225     279       4
     207     204     201     240       4     207     204     222     276       4
     207     210     213     249       5     207     210     213     252       5
     207     210     213     255       5     207     210     216     258       5
     207     210     216     261       5     207     210     216     264       5
     207     210     219     267       5     207     210     219     270       5
     207     210     219     273       5     213     210     207     243       5
     213     210     207     246       5     213     210     216     258       5
     213     210     216     261       5     213     210     216     264       5
     213     210     219     267       5     213     210     219     270       5
     213     210     219     273       5     216     210     207     243       5
     216     210     207     246       5     216     210     213     249       5
     216     210     213     252       5     216     210     213     255       5
     216     210     219     267       5     216     210     219     270       5
     216     210     219     273       5     219     210     207     243       5
     219     210     207     246       5     219     210     213     249       5
     219     210     213     252       5     219     210     213     255       5
     219     210     216     258       5     219     210     216     261       5
     219     210     216     264       5     222     204     201     240       4
     222     204     207     243       7     222     204     207     246       7
     225     195     192     234       6     225     195    -192     234       7
     225     195     198     237       4     228     189     192     234      10
     228     189     192     282       3     231     189     192     234      10
     231     189     192     282       3     234     192     282     285       3
     234     192     282     321      10     234     192     282     324      10
     237     198     201     240       4     276     222     225     279       4
     282     285     375     414       3     282     285     375     417       3
     285     288     291     330       4     285     288     318     372       4
     285     375     378     420       3     288     285     282     321       5
     288     285     282     324       5     288     285     375     414       5
     288     285     375     417       5     288     291     294     333       4
     288     318     315     369       4     291     288     285     327       6
     291     288    -285     327       7     291     288     318     372       4
     294     297     300     336       7     294     297     300     339       7
     294     297     315     369       4     297     294     291     330       4
     297     315     318     372       4     300     297     294     333       4
     300     297     315     369       4     300     303     306     342       5
     300     303     306     345       5     300     303     306     348       5
     300     303     309     351       5     300     303     309     354       5
     300     303     309     357       5     300     303     312     360       5
     300     303     312     363       5     300     303     312     366       5
     306     303     300     336       5     306     303     300     339       5
     306     303     309     351       5     306     303     309     354       5
     306     303     309     357       5     306     303     312     360       5
     306     303     312     363       5     306     303     312     366       5
     309     303     300     336       5     309     303     300     339       5
     309     303     306     342       5     309     303     306     345       5
     309     303     306     348       5     309     303     312     360       5
     309     303     312     363       5     309     303     312     366       5
     312     303     300     336       5     312     303     300     339       5
     312     303     306     342       5     312     303     306     345       5
     312     303     306     348       5     312     303     309     351       5
     312     303     309     354       5     312     303     309     357       5
     315     297     294     333       4     315     297     300     336       7
     315     297     300     339       7     318     288     285     327       6
     318     288    -285     327       7     318     288     291     330       4
     321     282     285     327      10     321     282     285     375       3
     324     282     285     327      10     324     282     285     375       3
     327     285     375     378       3     327     285     375     414      10
     327     285     375     417      10     330     291     294     333       4
     369     315     318     372       4     375     378     468     507       3
     375     378     468     510       3     378     381     384     423       4
     378     381     411     465       4     378     468     471     513       3
     381     378     375     414       5     381     378     375     417       5
     381     378     468     507       5     381     378     468     510       5
     381     384     387     426       4     381     411     408     462       4
     384     381     378     420       6     384     381    -378     420       7
     384     381     411     465       4     387     390     393     429       7
     387     390     393     432       7     387     390     408     462       4
     390     387     384     423       4     390     408     411     465       4
     393     390     387     426       4     393     390     408     462       4
     393     396     399     435       5     393     396     399     438       5
     393     396     399     441       5     393     396     402     444       5
     393     396     402     447       5     393     396     402     450       5
     393     396     405     453       5     393     396     405     456       5
     393     396     405     459       5     399     396     393     429       5
     399     396     393     432       5     399     396     402     444       5
     399     396     402     447       5     399     396     402     450       5
     399     396     405     453       5     399     396     405     456       5
     399     396     405     459       5     402     396     393     429       5
     402     396     393     432       5     402     396     399     435       5
     402     396     399     438       5     402     396     399     441       5
     402     396     405     453       5     402     396     405     456       5
     402     396     405     459       5     405     396     393     429       5
     405     396     393     432       5     405     396     399     435       5
     405     396     399     438       5     405     396     399     441       5
     405     396     402     444       5     405     396     402     447       5
     405     396     402     450       5     408     390     387     426       4
     408     390     393     429       7     408     390     393     432       7
     411     381     378     420       6     411     381    -378     420       7
     411     381     384     423       4     414     375     378     420      10
     414     375     378     468       3     417     375     378     420      10
     417     375     378     468       3     420     378     468     471       3
     420     378     468     507      10     420     378     468     510      10
     423     384     387     426       4     462     408     411     465       4
     468     471     561     600       3     468     471     561     603       3
     471     474     477     516       4     471     474     504     558       4
     471     561     564     606       3     474     471     468     507       5
     474     471     468     510       5     474     471     561     600       5
     474     471     561     603       5     474     477     480     519       4
     474     504     501     555       4     477     474     471     513       6
     477     474    -471     513       7     477     474     504     558       4
     480     483     486     522       7     480     483     486     525       7
     480     483     501     555       4     483     480     477     516       4
     483     501     504     558       4     486     483     480     519       4
     486     483     501     555       4     486     489     492     528       5
     486     489     492     531       5     486     489     492     534       5
     486     489     495     537       5     486     489     495     540       5
     486     489     495     543       5     486     489     498     546       5
     486     489     498     549       5     486     489     498     552       5
     492     489     486     522       5     492     489     486     525       5
     492     489     495     537       5     492     489     495     540       5
     492     489     495     543       5     492     489     498     546       5
     492     489     498     549       5     492     489     498     552       5
     495     489     486     522       5     495     489     486     525       5
     495     489     492     528       5     495     489     492     531       5
     495     489     492     534       5     495     489     498     546       5
     495     489     498     549       5     495     489     498     552       5
     498     489     486     522       5     498     489     486     525       5
     498     489     492     528       5     498     489     492     531       5
     498     489     492     534       5     498     489     495     537       5
     498     489     495     540       5     498     489     495     543       5
     501     483     480     519       4     501     483     486     522       7
     501     483     486     525       7     504     474     471     513       6
     504     474    -471     513       7     504     474     477     516       4
     507     468     471     513      10     507     468     471     561       3
     510     468     471     513      10     510     468     471     561       3
     513     471     561     564       3     513     471     561     600      10
     513     471     561     603      10     516     477     480     519       4
     555     501     504     558       4     561     564     654     693       3
     561     564     654     696       3     564     567     570     609       4
     564     567     597     651       4     564     654     657     699       3
     567     564     561     600       5     567     564     561     603       5
     567     564     654     693       5     567     564     654     696       5
     567     570     573     612       4     567     597     594     648       4
     570     567     564     606       6     570     567    -564     606       7
     570     567     597     651       4     573     576     579     615       7
     573     576     579     618       7     573     576     594     648       4
     576     573     570     609       4     576     594     597     651       4
     579     576     573     612       4     579     576     594     648       4
     579     582     585     621       5     579     582     585     624       5
     579     582     585     627       5     579     582     588     630       5
     579     582     588     633       5     579     582     588     636       5
     579     582     591     639       5     579     582     591     642       5
     579     582     591     645       5     585     582     579     615       5
     585     582     579     618       5     585     582     588     630       5
     585     582     588     633       5     585     582     588     636       5
     585     582     591     639       5     585     582     591     642       5
     585     582     591     645       5     588     582     579     615       5
     588     582     579     618       5     588     582     585     621       5
     588     582     585     624       5     588     582     585     627       5
     588     582     591     639       5     588     582     591     642       5
     588     582     591     645       5     591     582     579     615       5
     591     582     579     618       5     591     582     585     621       5
     591     582     585     624       5     591     582     585     627       5
     591     582     588     630       5     591     582     588     633       5
     591     582     588     636       5     594     576     573     612       4
     594     576     579     615       7     594     576     579     618       7
     597     567     564     606       6     597     567    -564     606       7
     597     567     570     609       4     600     561     564     606      10
     600     561     564     654       3     603     561     564     606      10
     603     561     564     654       3     606     564     654     657       3
     606     564     654     693      10     606     564     654     696      10
     609     570     573     612       4     648     594     597     651       4
     654     657     747     786       3     654     657     747     789       3
     657     660     663     702       4     657     660     690     744       4
     657     747     750     792       3     660     657     654     693       5
     660     657     654     696       5     660     657     747     786       5
     660     657     747     789       5     660     663     666     705       4
     660     690     687     741       4     663     660     657     699       6
     663     660    -657     699       7     663     660     690     744       4
     666     669     672     708       7     666     669     672     711       7
     666     669     687     741       4     669     666     663     702       4
     669     687     690     744       4     672     669     666     705       4
     672     669     687     741       4     672     675     678     714       5
     672     675     678     717       5     672     675     678     720       5
     672     675     681     723       5     672     675     681     726       5
     672     675     681     729       5     672     675     684     732       5
     672     675     684     735       5     672     675     684     738       5
     678     675     672     708       5     678     675     672     711       5
     678     675     681     723       5     678     675     681     726       5
     678     675     681     729       5     678     675     684     732       5
     678     675     684     735       5     678     675     684     738       5
     681     675     672     708       5     681     675     672     711       5
     681     675     678     714       5     681     675     678     717       5
     681     675     678     720       5     681     675     684     732       5
     681     675     684     735       5     681     675     684     738       5
     684     675     672     708       5     684     675     672     711       5
     684     675     678     714       5     684     675     678     717       5
     684     675     678     720       5     684     675     681     723       5
     684     675     681     726       5     684     675     681     729       5
     687     669     666     705       4     687     669     672     708       7
     687     669     672     711       7     690     660     657     699       6
     690     660    -657     699       7     690     660     663     702       4
     693     654     657     699      10     693     654     657     747       3
     696     654     657     699      10     696     654     657     747       3
     699     657     747     750       3     699     657     747     786      10
     699     657     747     789      10     702     663     666     705       4
     741     687     690     744       4     747     750     840     879       3
     747     750     840     882       3     750     753     756     795       4
     750     753     783     837       4     750     840     843     888       3
     753     750     747     786       5     753     750     747     789       5
     753     750     840     879       5     753     750     840     882       5
     753     756     759     798       4     753     783     780     834       4
     756     753     750     792       6     756     753    -750     792       7
     756     753     783     837       4     759     762     765     801       7
     759     762     765     804       7     759     762     780     834       4
     762     759     756     795       4     762     780     783     837       4
     765     762     759     798       4     765     762     780     834       4
     765     768     771     807       5     765     768     771     810       5
     765     768     771     813       5     765     768     774     816       5
     765     768     774     819       5     765     768     774     822       5
     765     768     777     825       5     765     768     777     828       5
     765     768     777     831       5     771     768     765     801       5
     771     768     765     804       5     771     768     774     816       5
     771     768     774     819       5     771     768     774     822       5
     771     768     777     825       5     771     768     777     828       5
     771     768     777     831       5     774     768     765     801       5
     774     768     765     804       5     774     768     771     807       5
     774     768     771     810       5     774     768     771     813       5
     774     768     777     825       5     774     768     777     828       5
     774     768     777     831       5     777     768     765     801       5
     777     768     765     804       5     777     768     771     807       5
     777     768     771     810       5     777     768     771     813       5
     777     768     774     816       5     777     768     774     819       5
     777     768     774     822       5     780     762     759     798       4
     780     762     765     801       7     780     762     765     804       7
     783     753     750     792       6     783     753    -750     792       7
     783     753     756     795       4     786     747     750     792      10
     786     747     750     840       3     789     747     750     792      10
     789     747     750     840       3     792     750     840     843       3
     792     750     840     879      10     792     750     840     882      10
     795     756     759     798       4     834     780     783     837       4
     840     843     885     945       3     840     843     885     948       3
     840     843     885     951       3     843     846     849     891       4
     843     846     876     933       4     846     843     840     879       5
     846     843     840     882       5     846     843     885     945       5
     846     843     885     948       5     846     843     885     951       5
     846     849     852     894       4     846     876     873     930       4
     849     846     843     888       6     849     846    -843     888       7
     849     846     876     933       4     852     855     858     897       7
     852     855     858     900       7     852     855     873     930       4
     855     852     849     891       4     855     873     876     933       4
     858     855     852     894       4     858     855     873     930       4
     858     861     864     903       5     858     861     864     906       5
     858     861     864     909       5     858     861     867     912       5
     858     861     867     915       5     858     861     867     918       5
     858     861     870     921       5     858     861     870     924       5
     858     861     870     927       5     864     861     858     897       5
     864     861     858     900       5     864     861     867     912       5
     864     861     867     915       5     864     861     867     918       5
     864     861     870     921       5     864     861     870     924       5
     864     861     870     927       5     867     861     858     897       5
     867     861     858     900       5     867     861     864     903       5
     867     861     864     906       5     867     861     864     909       5
     867     861     870     921       5     867     861     870     924       5
     867     861     870     927       5     870     861     858     897       5
     870     861     858     900       5     870     861     864     903       5
     870     861     864     906       5     870     861     864     909       5
     870     861     867     912       5     870     861     867     915       5
     870     861     867     918       5     873     855     852     894       4
     873     855     858     897       7     873     855     858     900       7
     876     846     843     888       6     876     846    -843     888       7
     876     846     849     891       4     879     840     843     885       3
     879     840     843     888      10     882     840     843     885       3
     882     840     843     888      10     888     843     885     945      10
     888     843     885     948      10     888     843     885     951      10
     891     849     852     894       4     930     873     876     933       4
       6      12      -9     -51      11       9      15     -12     -54      11
      15      36     -33     -90      11       6      33     -36     -93      11
     102     108    -105    -144      11     105     111    -108    -147      11
     111     132    -129    -183      11     102     129    -132    -186      11
     195     201    -198    -237      11     198     204    -201    -240      11
     204     225    -222    -276      11     195     222    -225    -279      11
     288     294    -291    -330      11     291     297    -294    -333      11
     297     318    -315    -369      11     288     315    -318    -372      11
     381     387    -384    -423      11     384     390    -387    -426      11
     390     411    -408    -462      11     381     408    -411    -465      11
     474     480    -477    -516      11     477     483    -480    -519      11
     483     504    -501    -555      11     474     501    -504    -558      11
     567     573    -570    -609      11     570     576    -573    -612      11
     576     597    -594    -648      11     567     594    -597    -651      11
     660     666    -663    -702      11     663     669    -666    -705      11
     669     690    -687    -741      11     660     687    -690    -744      11
     753     759    -756    -795      11     756     762    -759    -798      11
     762     783    -780    -834      11     753     780    -783    -837      11
     846     852    -849    -891      11     849     855    -852    -894      11
     855     876    -873    -930      11     846     873    -876    -933      11
%FLAG DIHEDRALS_WITHOUT_HYDROGEN                                                
%FORMAT(10I8)                                                                   
       0       3       6       9       1       0       3       6      36       1
       0       3      96      99       2       3       6       9      12       4
       3       6      36      33       4       3      96      99     102       5
       3      96      99     189       2      39       0       3       6       5
       6       3      96      99       5       6       9      12      15       4
       6      36     -33      15       4       9       6       3      96       1
       9       6      36      33       4       9      12      15      18       4
       9      12     -15      33       4      12       9       6      36       4
      12      15      18      21       7      12      15     -33      36       4
      15      18      21      24       8      15      18     -21      24       9
      15      18      21      27       8      15      18     -21      27       9
      15      18      21      30       8      15      18     -21      30       9
      18      15      33      36       4      21      18      15      33       7
      36       6       3      96       1      39       0       3      96       2
      96      99     102     105       1      96      99     102     132       1
      96      99     189     192       2      99     102     105     108       4
      99     102     132     129       4      99     189     192     195       5
      99     189     192     282       2     102      99     189     192       5
     102     105     108     111       4     102     132    -129     111       4
     105     102      99     189       1     105     102     132     129       4
     105     108     111     114       4     105     108    -111     129       4
     108     105     102     132       4     108     111     114     117       7
     108     111    -129     132       4     111     114     117     120       8
     111     114    -117     120       9     111     114     117     123       8
     111     114    -117     123       9     111     114     117     126       8
     111     114    -117     126       9     114     111     129     132       4
     117     114     111     129       7     132     102      99     189       1
     189     192     195     198       1     189     192     195     225       1
     189     192     282     285       2     192     195     198     201       4
     192     195     225     222       4     192     282     285     288       5
     192     282     285     375       2     195     192     282     285       5
     195     198     201     204       4     195     225    -222     204       4
     198     195     192     282       1     198     195     225     222       4
     198     201     204     207       4     198     201    -204     222       4
     201     198     195     225       4     201     204     207     210       7
     201     204    -222     225       4     204     207     210     213       8
     204     207    -210     213       9     204     207     210     216       8
     204     207    -210     216       9     204     207     210     219       8
     204     207    -210     219       9     207     204     222     225       4
     210     207     204     222       7     225     195     192     282       1
     282     285     288     291       1     282     285     288     318       1
     282     285     375     378       2     285     288     291     294       4
     285     288     318     315       4     285     375     378     381       5
     285     375     378     468       2     288     285     375     378       5
     288     291     294     297       4     288     318    -315     297       4
     291     288     285     375       1     291     288     318     315       4
     291     294     297     300       4     291     294    -297     315       4
     294     291     288     318       4     294     297     300     303       7
     294     297    -315     318       4     297     300     303     306       8
     297     300    -303     306       9     297     300     303     309       8
     297     300    -303     309       9     297     300     303     312       8
     297     300    -303     312       9     300     297     315     318       4
     303     300     297     315       7     318     288     285     375       1
     375     378     381     384       1     375     378     381     411       1
     375     378     468     471       2     378     381     384     387       4
     378     381     411     408       4     378     468     471     474       5
     378     468     471     561       2     381     378     468     471       5
     381     384     387     390       4     381     411    -408     390       4
     384     381     378     468       1     384     381     411     408       4
     384     387     390     393       4     384     387    -390     408       4
     387     384     381     411       4     387     390     393     396       7
     387     390    -408     411       4     390     393     396     399       8
     390     393    -396     399       9     390     393     396     402       8
     390     393    -396     402       9     390     393     396     405       8
     390     393    -396     405       9     393     390     408     411       4
     396     393     390     408       7     411     381     378     468       1
     468     471     474     477       1     468     471     474     504       1
     468     471     561     564       2     471     474     477     480       4
     471     474     504     501       4     471     561     564     567       5
     471     561     564     654       2     474     471     561     564       5
     474     477     480     483       4     474     504    -501     483       4
     477     474     471     561       1     477     474     504     501       4
     477     480     483     486       4     477     480    -483     501       4
     480     477     474     504       4     480     483     486     489       7
     480     483    -501     504       4     483     486     489     492       8
     483     486    -489     492       9     483     486     489     495       8
     483     486    -489     495       9     483     486     489     498       8
     483     486    -489     498       9     486     483     501     504       4
     489     486     483     501       7     504     474     471     561       1
     561     564     567     570       1     561     564     567     597       1
     561     564     654     657       2     564     567     570     573       4
     564     567     597     594       4     564     654     657     660       5
     564     654     657     747       2     567     564     654     657       5
     567     570     573     576       4     567     597    -594     576       4
     570     567     564     654       1     570     567     597     594       4
     570     573     576     579       4     570     573    -576     594       4
     573     570     567     597       4     573     576     579     582       7
     573     576    -594     597       4     576     579     582     585       8
     576     579    -582     585       9     576     579     582     588       8
     576     579    -582     588       9     576     579     582     591       8
     576     579    -582     591       9     579     576     594     597       4
     582     579     576     594       7     597     567     564     654       1
     654     657     660     663       1     654     657     660     690       1
     654     657     747     750       2     657     660     663     666       4
     657     660     690     687       4     657     747     750     753       5
     657     747     750     840       2     660     657     747     750       5
     660     663     666     669       4     660     690    -687     669       4
     663     660     657     747       1     663     660     690     687       4
     663     666     669     672       4     663     666    -669     687       4
     666     663     660     690       4     666     669     672     675       7
     666     669    -687     690       4     669     672     675     678       8
     669     672    -675     678       9     669     672     675     681       8
     669     672    -675     681       9     669     672     675     684       8
     669     672    -675     684       9     672     669     687     690       4
     675     672     669     687       7     690     660     657     747       1
     747     750     753     756       1     747     750     753     783       1
     747     750     840     843       2     750     753     756     759       4
     750     753     783     780       4     750     840     843     846       5
     750     840     843     885       2     753     750     840     843       5
     753     756     759     762       4     753     783    -780     762       4
     756     753     750     840       1     756     753     783     780       4
     756     759     762     765       4     756     759    -762     780       4
     759     756     753     783       4     759     762     765     768       7
     759     762    -780     783       4     762     765     768     771       8
     762     765    -768     771       9     762     765     768     774       8
     762     765    -768     774       9     762     765     768     777       8
     762     765    -768     777       9     765     762     780     783       4
     768     765     762     780       7     783     753     750     840       1
     840     843     846     849       1     840     843     846     876       1
     843     846     849     852       4     843     846     876     873       4
     846     849     852     855       4     846     876    -873     855       4
     849     846     843     885       1     849     846     876     873       4
     849     852     855     858       4     849     852    -855     873       4
     852     849     846     876       4     852     855     858     861       7
     852     855    -873     876       4     855     858     861     864       8
     855     858    -861     864       9     855     858     861     867       8
     855     858    -861     867       9     855     858     861     870       8
     855     858    -861     870       9     858     855     873     876       4
     861     858     855     873       7     876     846     843     885       1
       9      36      -6      -3      11      18      12     -15     -33      11
      99     105    -102    -132      11     114     108    -111    -129      11
     192     198    -195    -225      11     207     201    -204    -222      11
     285     291    -288    -318      11     300     294    -297    -315      11
     378     384    -381    -411      11     393     387    -390    -408      11
     471     477    -474    -504      11     486     480    -483    -501      11
     564     570    -567    -597      11     579     573    -576    -594      11
     657     663    -660    -690      11     672     666    -669    -687      11
     750     756    -753    -783      11     765     759    -762    -780      11
     843     849    -846    -876      11     858     852    -855    -873      11
%FLAG EXCLUDED_ATOMS_LIST                                                       
%FORMAT(10I8)                                                                   
       2       3       4      13      14      15      16      17      33      34
      46      47     313     314     315       3       4       5      12      13
      14      15      16      17      18      32      33      34      35      46
      47      48      64     313     314     315       4       5       6      12
      13      14      15      16      17      18      19      31      32      33
      34      46      47       5       6       7      12      13      17      18
      19      32      33       6       7       8      12      13      18      19
      20      21      31       7       8       9      10      11      12      13
      18      19      20      21      31      32       8       9      10      11
      12      13      19      20      21      22      23      24      25      26
      27      28      29      30      31       9      10      11      12      20
      21      22      23      24      25      26      27      28      29      30
      10      11      20      21      22      23      24      25      26      27
      28      29      30      11      20      21      22      23      24      25
      26      27      28      29      30      20      21      22      23      24
      25      26      27      28      29      30      13      19      20      21
      31      32      17      18      31      32      33      15      16      17
      33     313     314     315      16      17      33     313     314     315
      17      33     313     314     315      33      34      46      47      19
       0      21       0      23      24      24       0      26      27      27
       0      29      30      30       0      32       0      34      35      36
      45      46      47      48      64      65      77      78      35      36
      37      44      45      46      47      48      49      63      64      65
      66      77      78      79      95      36      37      38      44      45
      46      47      48      49      50      62      63      64      65      77
      78      37      38      39      44      45      48      49      50      63
      64      38      39      40      44      45      49      50      51      52
      62      39      40      41      42      43      44      45      49      50
      51      52      62      63      40      41      42      43      44      45
      50      51      52      53      54      55      56      57      58      59
      60      61      62      41      42      43      44      51      52      53
      54      55      56      57      58      59      60      61      42      43
      51      52      53      54      55      56      57      58      59      60
      61      43      51      52      53      54      55      56      57      58
      59      60      61      51      52      53      54      55      56      57
      58      59      60      61      45      50      51      52      62      63
      48      49      62      63      64      47      48      64      48      64
      64      65      77      78      50       0      52       0      54      55
      55       0      57      58      58       0      60      61      61       0
      63       0      65      66      67      76      77      78      79      95
      96     108     109      66      67      68      75      76      77      78
      79      80      94      95      96      97     108     109     110     126
      67      68      69      75      76      77      78      79      80      81
      93      94      95      96     108     109      68      69      70      75
      76      79      80      81      94      95      69      70      71      75
      76      80      81      82      83      93      70      71      72      73
      74      75      76      80      81      82      83      93      94      71
      72      73      74      75      76      81      82      83      84      85
      86      87      88      89      90      91      92      93      72      73
      74      75      82      83      84      85      86      87      88      89
      90      91      92      73      74      82      83      84      85      86
      87      88      89      90      91      92      74      82      83      84
      85      86      87      88      89      90      91      92      82      83
      84      85      86      87      88      89      90      91      92      76
      81      82      83      93      94      79      80      93      94      95
      78      79      95      79      95      95      96     108     109      81
       0      83       0      85      86      86       0      88      89      89
       0      91      92      92       0      94       0      96      97      98
     107     108     109     110     126     127     139     140      97      98
      99     106     107     108     109     110     111     125     126     127
     128     139     140     141     157      98      99     100     106     107
     108     109     110     111     112     124     125     126     127     139
     140      99     100     101     106     107     110     111     112     125
     126     100     101     102     106     107     111     112     113     114
     124     101     102     103     104     105     106     107     111     112
     113     114     124     125     102     103     104     105     106     107
     112     113     114     115     116     117     118     119     120     121
     122     123     124     103     104     105     106     113     114     115
     116     117     118     119     120     121     122     123     104     105
     113     114     115     116     117     118     119     120     121     122
     123     105     113     114     115     116     117     118     119     120
     121     122     123     113     114     115     116     117     118     119
     120     121     122     123     107     112     113     114     124     125
     110     111     124     125     126     109     110     126     110     126
     126     127     139     140     112       0     114       0     116     117
     117       0     119     120     120       0     122     123     123       0
     125       0     127     128     129     138     139     140     141     157
     158     170     171     128     129     130     137     138     139     140
     141     142     156     157     158     159     170     171     172     188
     129     130     131     137     138     139     140     141     142     143
     155     156     157     158     170     171     130     131     132     137
     138     141     142     143     156     157     131     132     133     137
     138     142     143     144     145     155     132     133     134     135
     136     137     138     142     143     144     145     155     156     133
     134     135     136     137     138     143     144     145     146     147
     148     149     150     151     152     153     154     155     134     135
     136     137     144     145     146     147     148     149     150     151
     152     153     154     135     136     144     145     146     147     148
     149     150     151     152     153     154     136     144     145     146
     147     148     149     150     151     152     153     154     144     145
     146     147     148     149     150     151     152     153     154     138
     143     144     145     155     156     141     142     155     156     157
     140     141     157     141     157     157     158     170     171     143
       0     145       0     147     148     148       0     150     151     151
       0     153     154     154       0     156       0     158     159     160
     169     170     171     172     188     189     201     202     159     160
     161     168     169     170     171     172     173     187     188     189
     190     201     202     203     219     160     161     162     168     169
     170     171     172     173     174     186     187     188     189     201
     202     161     162     163     168     169     172     173     174     187
     188     162     163     164     168     169     173     174     175     176
     186     163     164     165     166     167     168     169     173     174
     175     176     186     187     164     165     166     167     168     169
     174     175     176     177     178     179     180     181     182     183
     184     185     186     165     166     167     168     175     176     177
     178     179     180     181     182     183     184     185     166     167
     175     176     177     178     179     180     181     182     183     184
     185     167     175     176     177     178     179     180     181     182
     183     184     185     175     176     177     178     179     180     181
     182     183     184     185     169     174     175     176     186     187
     172     173     186     187     188     171     172     188     172     188
     188     189     201     202     174       0     176       0     178     179
     179       0     181     182     182       0     184     185     185       0
     187       0     189     190     191     200     201     202     203     219
     220     232     233     190     191     192     199     200     201     202
     203     204     218     219     220     221     232     233     234     250
     191     192     193     199     200     201     202     203     204     205
     217     218     219     220     232     233     192     193     194     199
     200     203     204     205     218     219     193     194     195     199
     200     204     205     206     207     217     194     195     196     197
     198     199     200     204     205     206     207     217     218     195
     196     197     198     199     200     205     206     207     208     209
     210     211     212     213     214     215     216     217     196     197
     198     199     206     207     208     209     210     211     212     213
     214     215     216     197     198     206     207     208     209     210
     211     212     213     214     215     216     198     206     207     208
     209     210     211     212     213     214     215     216     206     207
     208     209     210     211     212     213     214     215     216     200
     205     206     207     217     218     203     204     217     218     219
     202     203     219     203     219     219     220     232     233     205
       0     207       0     209     210     210       0     212     213     213
       0     215     216     216       0     218       0     220     221     222
     231     232     233     234     250     251     263     264     221     222
     223     230     231     232     233     234     235     249     250     251
     252     263     264     265     281     222     223     224     230     231
     232     233     234     235     236     248     249     250     251     263
     264     223     224     225     230     231     234     235     236     249
     250     224     225     226     230     231     235     236     237     238
     248     225     226     227     228     229     230     231     235     236
     237     238     248     249     226     227     228     229     230     231
     236     237     238     239     240     241     242     243     244     245
     246     247     248     227     228     229     230     237     238     239
     240     241     242     243     244     245     246     247     228     229
     237     238     239     240     241     242     243     244     245     246
     247     229     237     238     239     240     241     242     243     244
     245     246     247     237     238     239     240     241     242     243
     244     245     246     247     231     236     237     238     248     249
     234     235     248     249     250     233     234     250     234     250
     250     251     263     264     236       0     238       0     240     241
     241       0     243     244     244       0     246     247     247       0
     249       0     251     252     253     262     263     264     265     281
     282     294     295     252     253     254     261     262     263     264
     265     266     280     281     282     283     294     295     296     297
     253     254     255     261     262     263     264     265     266     267
     279     280     281     282     294     295     254     255     256     261
     262     265     266     267     280     281     255     256     257     261
     262     266     267     268     269     279     256     257     258     259
     260     261     262     266     267     268     269     279     280     257
     258     259     260     261     262     267     268     269     270     271
     272     273     274     275     276     277     278     279     258     259
     260     261     268     269     270     271     272     273     274     275
     276     277     278     259     260     268     269     270     271     272
     273     274     275     276     277     278     260     268     269     270
     271     272     273     274     275     276     277     278     268     269
     270     271     272     273     274     275     276     277     278     262
     267     268     269     279     280     265     266     279     280     281
     264     265     281     265     281     281     282     294     295     267
       0     269       0     271     272     272       0     274     275     275
       0     277     278     278       0     280       0     282     283     284
     293     294     295     296     297     316     317     318     283     284
     285     292     293     294     295     296     297     298     312     316
     317     318     284     285     286     292     293     294     295     296
     297     298     299     311     312     316     317     318     285     286
     287     292     293     296     297     298     299     312     286     287
     288     292     293     298     299     300     301     311     287     288
     289     290     291     292     293     298     299     300     301     311
     312     288     289     290     291     292     293     299     300     301
     302     303     304     305     306     307     308     309     310     311
     289     290     291     292     300     301     302     303     304     305
     306     307     308     309     310     290     291     300     301     302
     303     304     305     306     307     308     309     310     291     300
     301     302     303     304     305     306     307     308     309     310
     300     301     302     303     304     305     306     307     308     309
     310     293     299     300     301     311     312     296     297     298
     311     312     295     296     297     296     297     297     316     317
     318     316     317     318     299       0     301       0     303     304
     304       0     306     307     307       0     309     310     310       0
     312       0     314     315     315       0     317     318     318       0
%FLAG HBOND_ACOEF                                                               
%FORMAT(5E16.8)                                                                 

%FLAG HBOND_BCOEF                                                               
%FORMAT(5E16.8)                                                                 

%FLAG HBCUT                                                                     
%FORMAT(5E16.8)                                                                 

%FLAG AMBER_ATOM_TYPE                                                           
%FORMAT(20a4)                                                                   
c3  c3  ca  ca  ca  ca  c3  n4  c3  c3  c3  ca  ca  c3  hc  hc  hc  ha  ha  hx  
hx  hx  hx  hx  hx  hx  hx  hx  hx  hx  ha  ha  c3  c3  ca  ca  ca  ca  c3  n4  
c3  c3  c3  ca  ca  hc  hc  hc  ha  ha  hx  hx  hx  hx  hx  hx  hx  hx  hx  hx  
hx  ha  ha  c3  c3  ca  ca  ca  ca  c3  n4  c3  c3  c3  ca  ca  hc  hc  hc  ha  
ha  hx  hx  hx  hx  hx  hx  hx  hx  hx  hx  hx  ha  ha  c3  c3  ca  ca  ca  ca  
c3  n4  c3  c3  c3  ca  ca  hc  hc  hc  ha  ha  hx  hx  hx  hx  hx  hx  hx  hx  
hx  hx  hx  ha  ha  c3  c3  ca  ca  ca  ca  c3  n4  c3  c3  c3  ca  ca  hc  hc  
hc  ha  ha  hx  hx  hx  hx  hx  hx  hx  hx  hx  hx  hx  ha  ha  c3  c3  ca  ca  
ca  ca  c3  n4  c3  c3  c3  ca  ca  hc  hc  hc  ha  ha  hx  hx  hx  hx  hx  hx  
hx  hx  hx  hx  hx  ha  ha  c3  c3  ca  ca  ca  ca  c3  n4  c3  c3  c3  ca  ca  
hc  hc  hc  ha  ha  hx  hx  hx  hx  hx  hx  hx  hx  hx  hx  hx  ha  ha  c3  c3  
ca  ca  ca  ca  c3  n4  c3  c3  c3  ca  ca  hc  hc  hc  ha  ha  hx  hx  hx  hx  
hx  hx  hx  hx  hx  hx  hx  ha  ha  c3  c3  ca  ca  ca  ca  c3  n4  c3  c3  c3  
ca  ca  hc  hc  hc  ha  ha  hx  hx  hx  hx  hx  hx  hx  hx  hx  hx  hx  ha  ha  
c3  c3  ca  ca  ca  ca  c3  n4  c3  c3  c3  ca  ca  hc  hc  c3  hc  ha  ha  hx  
hx  hx  hx  hx  hx  hx  hx  hx  hx  hx  ha  ha  hc  hc  hc  hc  hc  hc  
%FLAG TREE_CHAIN_CLASSIFICATION                                                 
%FORMAT(20a4)                                                                   
BLA BLA BLA BLA BLA BLA BLA BLA BLA BLA BLA BLA BLA BLA BLA BLA BLA BLA BLA BLA 
BLA BLA BLA BLA BLA BLA BLA BLA BLA BLA BLA BLA BLA BLA BLA BLA BLA BLA BLA BLA 
BLA BLA BLA BLA BLA BLA BLA BLA BLA BLA BLA BLA BLA BLA BLA BLA BLA BLA BLA BLA 
BLA BLA BLA BLA BLA BLA BLA BLA BLA BLA BLA BLA BLA BLA BLA BLA BLA BLA BLA BLA 
BLA BLA BLA BLA BLA BLA BLA BLA BLA BLA BLA BLA BLA BLA BLA BLA BLA BLA BLA BLA 
BLA BLA BLA BLA BLA BLA BLA BLA BLA BLA BLA BLA BLA BLA BLA BLA BLA BLA BLA BLA 
BLA BLA BLA BLA BLA BLA BLA BLA BLA BLA BLA BLA BLA BLA BLA BLA BLA BLA BLA BLA 
BLA BLA BLA BLA BLA BLA BLA BLA BLA BLA BLA BLA BLA BLA BLA BLA BLA BLA BLA BLA 
BLA BLA BLA BLA BLA BLA BLA BLA BLA BLA BLA BLA BLA BLA BLA BLA BLA BLA BLA BLA 
BLA BLA BLA BLA BLA BLA BLA BLA BLA BLA BLA BLA BLA BLA BLA BLA BLA BLA BLA BLA 
BLA BLA BLA BLA BLA BLA BLA BLA BLA BLA BLA BLA BLA BLA BLA BLA BLA BLA BLA BLA 
BLA BLA BLA BLA BLA BLA BLA BLA BLA BLA BLA BLA BLA BLA BLA BLA BLA BLA BLA BLA 
BLA BLA BLA BLA BLA BLA BLA BLA BLA BLA BLA BLA BLA BLA BLA BLA BLA BLA BLA BLA 
BLA BLA BLA BLA BLA BLA BLA BLA BLA BLA BLA BLA BLA BLA BLA BLA BLA BLA BLA BLA 
BLA BLA BLA BLA BLA BLA BLA BLA BLA BLA BLA BLA BLA BLA BLA BLA BLA BLA BLA BLA 
BLA BLA BLA BLA BLA BLA BLA BLA BLA BLA BLA BLA BLA BLA BLA BLA BLA BLA 
%FLAG JOIN_ARRAY                                                                
%FORMAT(10I8)                                                                   
       0       0       0       0       0       0       0       0       0       0
       0       0       0       0       0       0       0       0       0       0
       0       0       0       0       0       0       0       0       0       0
       0       0       0       0       0       0       0       0       0       0
       0       0       0       0       0       0       0       0       0       0
       0       0       0       0       0       0       0       0       0       0
       0       0       0       0       0       0       0       0       0       0
       0       0       0       0       0       0       0       0       0       0
       0       0       0       0       0       0       0       0       0       0
       0       0       0       0       0       0       0       0       0       0
       0       0       0       0       0       0       0       0       0       0
       0       0       0       0       0       0       0       0       0       0
       0       0       0       0       0       0       0       0       0       0
       0       0       0       0       0       0       0       0       0       0
       0       0       0       0       0       0       0       0       0       0
       0       0       0       0       0       0       0       0       0       0
       0       0       0       0       0       0       0       0       0       0
       0       0       0       0       0       0       0       0       0       0
       0       0       0       0       0       0       0       0       0       0
       0       0       0       0       0       0       0       0       0       0
       0       0       0       0       0       0       0       0       0       0
       0       0       0       0       0       0       0       0       0       0
       0       0       0       0       0       0       0       0       0       0
       0       0       0       0       0       0       0       0       0       0
       0       0       0       0       0       0       0       0       0       0
       0       0       0       0       0       0       0       0       0       0
       0       0       0       0       0       0       0       0       0       0
       0       0       0       0       0       0       0       0       0       0
       0       0       0       0       0       0       0       0       0       0
       0       0       0       0       0       0       0       0       0       0
       0       0       0       0       0       0       0       0       0       0
       0       0       0       0       0       0       0       0
%FLAG IROTAT                                                                    
%FORMAT(10I8)                                                                   
       0       0       0       0       0       0       0       0       0       0
       0       0       0       0       0       0       0       0       0       0
       0       0       0       0       0       0       0       0       0       0
       0       0       0       0       0       0       0       0       0       0
       0       0       0       0       0       0       0       0       0       0
       0       0       0       0       0       0       0       0       0       0
       0       0       0       0       0       0       0       0       0       0
       0       0       0       0       0       0       0       0       0       0
       0       0       0       0       0       0       0       0       0       0
       0       0       0       0       0       0       0       0       0       0
       0       0       0       0       0       0       0       0       0       0
       0       0       0       0       0       0       0       0       0       0
       0       0       0       0       0       0       0       0       0       0
       0       0       0       0       0       0       0       0       0       0
       0       0       0       0       0       0       0       0       0       0
       0       0       0       0       0       0       0       0       0       0
       0       0       0       0       0       0       0       0       0       0
       0       0       0       0       0       0       0       0       0       0
       0       0       0       0       0       0       0       0       0       0
       0       0       0       0       0       0       0       0       0       0
       0       0       0       0       0       0       0       0       0       0
       0       0       0       0       0       0       0       0       0       0
       0       0       0       0       0       0       0       0       0       0
       0       0       0       0       0       0       0       0       0       0
       0       0       0       0       0       0       0       0       0       0
       0       0       0       0       0       0       0       0       0       0
       0       0       0       0       0       0       0       0       0       0
       0       0       0       0       0       0       0       0       0       0
       0       0       0       0       0       0       0       0       0       0
       0       0       0       0       0       0       0       0       0       0
       0       0       0       0       0       0       0       0       0       0
       0       0       0       0       0       0       0       0
%FLAG RADIUS_SET                                                                
%FORMAT(1a80)                                                                   
modified Bondi radii (mbondi)                                                   
%FLAG RADII                                                                     
%FORMAT(5E16.8)                                                                 
  1.70000000E+00  1.70000000E+00  1.70000000E+00  1.70000000E+00  1.70000000E+00
  1.70000000E+00  1.70000000E+00  1.55000000E+00  1.70000000E+00  1.70000000E+00
  1.70000000E+00  1.70000000E+00  1.70000000E+00  1.70000000E+00  1.30000000E+00
  1.30000000E+00  1.30000000E+00  1.30000000E+00  1.30000000E+00  1.30000000E+00
  1.30000000E+00  1.30000000E+00  1.30000000E+00  1.30000000E+00  1.30000000E+00
  1.30000000E+00  1.30000000E+00  1.30000000E+00  1.30000000E+00  1.30000000E+00
  1.30000000E+00  1.30000000E+00  1.70000000E+00  1.70000000E+00  1.70000000E+00
  1.70000000E+00  1.70000000E+00  1.70000000E+00  1.70000000E+00  1.55000000E+00
  1.70000000E+00  1.70000000E+00  1.70000000E+00  1.70000000E+00  1.70000000E+00
  1.30000000E+00  1.30000000E+00  1.30000000E+00  1.30000000E+00  1.30000000E+00
  1.30000000E+00  1.30000000E+00  1.30000000E+00  1.30000000E+00  1.30000000E+00
  1.30000000E+00  1.30000000E+00  1.30000000E+00  1.30000000E+00  1.30000000E+00
  1.30000000E+00  1.30000000E+00  1.30000000E+00  1.70000000E+00  1.70000000E+00
  1.70000000E+00  1.70000000E+00  1.70000000E+00  1.70000000E+00  1.70000000E+00
  1.55000000E+00  1.70000000E+00  1.70000000E+00  1.70000000E+00  1.70000000E+00
  1.70000000E+00  1.30000000E+00  1.30000000E+00  1.30000000E+00  1.30000000E+00
  1.30000000E+00  1.30000000E+00  1.30000000E+00  1.30000000E+00  1.30000000E+00
  1.30000000E+00  1.30000000E+00  1.30000000E+00  1.30000000E+00  1.30000000E+00
  1.30000000E+00  1.30000000E+00  1.30000000E+00  1.30000000E+00  1.70000000E+00
  1.70000000E+00  1.70000000E+00  1.70000000E+00  1.70000000E+00  1.70000000E+00
  1.70000000E+00  1.55000000E+00  1.70000000E+00  1.70000000E+00  1.70000000E+00
  1.70000000E+00  1.70000000E+00  1.30000000E+00  1.30000000E+00  1.30000000E+00
  1.30000000E+00  1.30000000E+00  1.30000000E+00  1.30000000E+00  1.30000000E+00
  1.30000000E+00  1.30000000E+00  1.30000000E+00  1.30000000E+00  1.30000000E+00
  1.30000000E+00  1.30000000E+00  1.30000000E+00  1.30000000E+00  1.30000000E+00
  1.70000000E+00  1.70000000E+00  1.70000000E+00  1.70000000E+00  1.70000000E+00
  1.70000000E+00  1.70000000E+00  1.55000000E+00  1.70000000E+00  1.70000000E+00
  1.70000000E+00  1.70000000E+00  1.70000000E+00  1.30000000E+00  1.30000000E+00
  1.30000000E+00  1.30000000E+00  1.30000000E+00  1.30000000E+00  1.30000000E+00
  1.30000000E+00  1.30000000E+00  1.30000000E+00  1.30000000E+00  1.30000000E+00
  1.30000000E+00  1.30000000E+00  1.30000000E+00  1.30000000E+00  1.30000000E+00
  1.30000000E+00  1.70000000E+00  1.70000000E+00  1.70000000E+00  1.70000000E+00
  1.70000000E+00  1.70000000E+00  1.70000000E+00  1.55000000E+00  1.70000000E+00
  1.70000000E+00  1.70000000E+00  1.70000000E+00  1.70000000E+00  1.30000000E+00
  1.30000000E+00  1.30000000E+00  1.30000000E+00  1.30000000E+00  1.30000000E+00
  1.30000000E+00  1.30000000E+00  1.30000000E+00  1.30000000E+00  1.30000000E+00
  1.30000000E+00  1.30000000E+00  1.30000000E+00  1.30000000E+00  1.30000000E+00
  1.30000000E+00  1.30000000E+00  1.70000000E+00  1.70000000E+00  1.70000000E+00
  1.70000000E+00  1.70000000E+00  1.70000000E+00  1.70000000E+00  1.55000000E+00
  1.70000000E+00  1.70000000E+00  1.70000000E+00  1.70000000E+00  1.70000000E+00
  1.30000000E+00  1.30000000E+00  1.30000000E+00  1.30000000E+00  1.30000000E+00
  1.30000000E+00  1.30000000E+00  1.30000000E+00  1.30000000E+00  1.30000000E+00
  1.30000000E+00  1.30000000E+00  1.30000000E+00  1.30000000E+00  1.30000000E+00
  1.30000000E+00  1.30000000E+00  1.30000000E+00  1.70000000E+00  1.70000000E+00
  1.70000000E+00  1.70000000E+00  1.70000000E+00  1.70000000E+00  1.70000000E+00
  1.55000000E+00  1.70000000E+00  1.70000000E+00  1.70000000E+00  1.70000000E+00
  1.70000000E+00  1.30000000E+00  1.30000000E+00  1.30000000E+00  1.30000000E+00
  1.30000000E+00  1.30000000E+00  1.30000000E+00  1.30000000E+00  1.30000000E+00
  1.30000000E+00  1.30000000E+00  1.30000000E+00  1.30000000E+00  1.30000000E+00
  1.30000000E+00  1.30000000E+00  1.30000000E+00  1.30000000E+00  1.70000000E+00
  1.70000000E+00  1.70000000E+00  1.70000000E+00  1.70000000E+00  1.70000000E+00
  1.70000000E+00  1.55000000E+00  1.70000000E+00  1.70000000E+00  1.70000000E+00
  1.70000000E+00  1.70000000E+00  1.30000000E+00  1.30000000E+00  1.30000000E+00
  1.30000000E+00  1.30000000E+00  1.30000000E+00  1.30000000E+00  1.30000000E+00
  1.30000000E+00  1.30000000E+00  1.30000000E+00  1.30000000E+00  1.30000000E+00
  1.30000000E+00  1.30000000E+00  1.30000000E+00  1.30000000E+00  1.30000000E+00
  1.70000000E+00  1.70000000E+00  1.70000000E+00  1.70000000E+00  1.70000000E+00
  1.70000000E+00  1.70000000E+00  1.55000000E+00  1.70000000E+00  1.70000000E+00
  1.70000000E+00  1.70000000E+00  1.70000000E+00  1.30000000E+00  1.30000000E+00
  1.70000000E+00  1.30000000E+00  1.30000000E+00  1.30000000E+00  1.30000000E+00
  1.30000000E+00  1.30000000E+00  1.30000000E+00  1.30000000E+00  1.30000000E+00
  1.30000000E+00  1.30000000E+00  1.30000000E+00  1.30000000E+00  1.30000000E+00
  1.30000000E+00  1.30000000E+00  1.30000000E+00  1.30000000E+00  1.30000000E+00
  1.30000000E+00  1.30000000E+00  1.30000000E+00
%FLAG SCREEN                                                                    
%FORMAT(5E16.8)                                                                 
  7.20000000E-01  7.20000000E-01  7.20000000E-01  7.20000000E-01  7.20000000E-01
  7.20000000E-01  7.20000000E-01  7.90000000E-01  7.20000000E-01  7.20000000E-01
  7.20000000E-01  7.20000000E-01  7.20000000E-01  7.20000000E-01  8.50000000E-01
  8.50000000E-01  8.50000000E-01  8.50000000E-01  8.50000000E-01  8.50000000E-01
  8.50000000E-01  8.50000000E-01  8.50000000E-01  8.50000000E-01  8.50000000E-01
  8.50000000E-01  8.50000000E-01  8.50000000E-01  8.50000000E-01  8.50000000E-01
  8.50000000E-01  8.50000000E-01  7.20000000E-01  7.20000000E-01  7.20000000E-01
  7.20000000E-01  7.20000000E-01  7.20000000E-01  7.20000000E-01  7.90000000E-01
  7.20000000E-01  7.20000000E-01  7.20000000E-01  7.20000000E-01  7.20000000E-01
  8.50000000E-01  8.50000000E-01  8.50000000E-01  8.50000000E-01  8.50000000E-01
  8.50000000E-01  8.50000000E-01  8.50000000E-01  8.50000000E-01  8.50000000E-01
  8.50000000E-01  8.50000000E-01  8.50000000E-01  8.50000000E-01  8.50000000E-01
  8.50000000E-01  8.50000000E-01  8.50000000E-01  7.20000000E-01  7.20000000E-01
  7.20000000E-01  7.20000000E-01  7.20000000E-01  7.20000000E-01  7.20000000E-01
  7.90000000E-01  7.20000000E-01  7.20000000E-01  7.20000000E-01  7.20000000E-01
  7.20000000E-01  8.50000000E-01  8.50000000E-01  8.50000000E-01  8.50000000E-01
  8.50000000E-01  8.50000000E-01  8.50000000E-01  8.50000000E-01  8.50000000E-01
  8.50000000E-01  8.50000000E-01  8.50000000E-01  8.50000000E-01  8.50000000E-01
  8.50000000E-01  8.50000000E-01  8.50000000E-01  8.50000000E-01  7.20000000E-01
  7.20000000E-01  7.20000000E-01  7.20000000E-01  7.20000000E-01  7.20000000E-01
  7.20000000E-01  7.90000000E-01  7.20000000E-01  7.20000000E-01  7.20000000E-01
  7.20000000E-01  7.20000000E-01  8.50000000E-01  8.50000000E-01  8.50000000E-01
  8.50000000E-01  8.50000000E-01  8.50000000E-01  8.50000000E-01  8.50000000E-01
  8.50000000E-01  8.50000000E-01  8.50000000E-01  8.50000000E-01  8.50000000E-01
  8.50000000E-01  8.50000000E-01  8.50000000E-01  8.50000000E-01  8.50000000E-01
  7.20000000E-01  7.20000000E-01  7.20000000E-01  7.20000000E-01  7.20000000E-01
  7.20000000E-01  7.20000000E-01  7.90000000E-01  7.20000000E-01  7.20000000E-01
  7.20000000E-01  7.20000000E-01  7.20000000E-01  8.50000000E-01  8.50000000E-01
  8.50000000E-01  8.50000000E-01  8.50000000E-01  8.50000000E-01  8.50000000E-01
  8.50000000E-01  8.50000000E-01  8.50000000E-01  8.50000000E-01  8.50000000E-01
  8.50000000E-01  8.50000000E-01  8.50000000E-01  8.50000000E-01  8.50000000E-01
  8.50000000E-01  7.20000000E-01  7.20000000E-01  7.20000000E-01  7.20000000E-01
  7.20000000E-01  7.20000000E-01  7.20000000E-01  7.90000000E-01  7.20000000E-01
  7.20000000E-01  7.20000000E-01  7.20000000E-01  7.20000000E-01  8.50000000E-01
  8.50000000E-01  8.50000000E-01  8.50000000E-01  8.50000000E-01  8.50000000E-01
  8.50000000E-01  8.50000000E-01  8.50000000E-01  8.50000000E-01  8.50000000E-01
  8.50000000E-01  8.50000000E-01  8.50000000E-01  8.50000000E-01  8.50000000E-01
  8.50000000E-01  8.50000000E-01  7.20000000E-01  7.20000000E-01  7.20000000E-01
  7.20000000E-01  7.20000000E-01  7.20000000E-01  7.20000000E-01  7.90000000E-01
  7.20000000E-01  7.20000000E-01  7.20000000E-01  7.20000000E-01  7.20000000E-01
  8.50000000E-01  8.50000000E-01  8.50000000E-01  8.50000000E-01  8.50000000E-01
  8.50000000E-01  8.50000000E-01  8.50000000E-01  8.50000000E-01  8.50000000E-01
  8.50000000E-01  8.50000000E-01  8.50000000E-01  8.50000000E-01  8.50000000E-01
  8.50000000E-01  8.50000000E-01  8.50000000E-01  7.20000000E-01  7.20000000E-01
  7.20000000E-01  7.20000000E-01  7.20000000E-01  7.20000000E-01  7.20000000E-01
  7.90000000E-01  7.20000000E-01  7.20000000E-01  7.20000000E-01  7.20000000E-01
  7.20000000E-01  8.50000000E-01  8.50000000E-01  8.50000000E-01  8.50000000E-01
  8.50000000E-01  8.50000000E-01  8.50000000E-01  8.50000000E-01  8.50000000E-01
  8.50000000E-01  8.50000000E-01  8.50000000E-01  8.50000000E-01  8.50000000E-01
  8.50000000E-01  8.50000000E-01  8.50000000E-01  8.50000000E-01  7.20000000E-01
  7.20000000E-01  7.20000000E-01  7.20000000E-01  7.20000000E-01  7.20000000E-01
  7.20000000E-01  7.90000000E-01  7.20000000E-01  7.20000000E-01  7.20000000E-01
  7.20000000E-01  7.20000000E-01  8.50000000E-01  8.50000000E-01  8.50000000E-01
  8.50000000E-01  8.50000000E-01  8.50000000E-01  8.50000000E-01  8.50000000E-01
  8.50000000E-01  8.50000000E-01  8.50000000E-01  8.50000000E-01  8.50000000E-01
  8.50000000E-01  8.50000000E-01  8.50000000E-01  8.50000000E-01  8.50000000E-01
  7.20000000E-01  7.20000000E-01  7.20000000E-01  7.20000000E-01  7.20000000E-01
  7.20000000E-01  7.20000000E-01  7.90000000E-01  7.20000000E-01  7.20000000E-01
  7.20000000E-01  7.20000000E-01  7.20000000E-01  8.50000000E-01  8.50000000E-01
  7.20000000E-01  8.50000000E-01  8.50000000E-01  8.50000000E-01  8.50000000E-01
  8.50000000E-01  8.50000000E-01  8.50000000E-01  8.50000000E-01  8.50000000E-01
  8.50000000E-01  8.50000000E-01  8.50000000E-01  8.50000000E-01  8.50000000E-01
  8.50000000E-01  8.50000000E-01  8.50000000E-01  8.50000000E-01  8.50000000E-01
  8.50000000E-01  8.50000000E-01  8.50000000E-01
%FLAG IPOL                                                                      
%FORMAT(1I8)                                                                    
       0
