POL
   318
  -1.6444000   2.3033000  -2.0229000  -2.2147000   0.9156000  -2.3891000
  -3.6558000   1.0513000  -2.8856000  -3.9580000   0.7646000  -4.2233000
  -5.2400000   0.9980000  -4.7376000  -6.2557000   1.5250000  -3.9264000
  -7.6114000   1.8666000  -4.5038000  -8.6977000   0.7766000  -4.4601000
  -9.9663000   1.3507000  -5.0993000  -9.0208000   0.3766000  -3.0301000
  -8.2780000  -0.4528000  -5.2485000  -5.9608000   1.7868000  -2.5806000
  -4.6789000   1.5523000  -2.0676000  -1.7520000   3.3412000  -3.1396000
  -2.1250000   2.6953000  -1.1188000  -0.5801000   2.2110000  -1.8064000
  -1.6148000   0.5330000  -3.2260000  -3.1854000   0.3894000  -4.8921000
  -5.4173000   0.8000000  -5.7937000  -7.4971000   2.1557000  -5.5569000
  -8.0208000   2.7416000  -3.9820000 -10.7469000   0.5846000  -5.0722000
  -9.7381000   1.6258000  -6.1334000 -10.2747000   2.2299000  -4.5258000
  -8.1493000  -0.1177000  -2.5930000  -9.2807000   1.2774000  -2.4664000
  -9.8667000  -0.3177000  -3.0474000  -9.1205000  -1.1509000  -5.2763000
  -7.4274000  -0.9234000  -4.7485000  -8.0098000  -0.1418000  -6.2623000
  -6.7107000   2.2183000  -1.9191000  -4.4785000   1.8051000  -1.0277000
  -2.1299000  -0.1423000  -1.2493000  -0.7347000  -0.5224000  -0.6553000
   0.2609000  -0.9313000  -1.7393000   0.1874000  -2.2225000  -2.2862000
   1.0971000  -2.6539000  -3.2606000   2.1060000  -1.8010000  -3.7275000
   3.1225000  -2.2769000  -4.7417000   2.7922000  -2.0654000  -6.2305000
   3.9634000  -2.6091000  -7.0563000   2.6224000  -0.5899000  -6.5568000
   1.5349000  -2.8201000  -6.6305000   2.1721000  -0.5054000  -3.1967000
   1.2606000  -0.0770000  -2.2216000  -2.7823000   0.1497000  -0.4146000
  -2.5774000  -1.0728000  -1.6392000  -0.9282000  -1.4402000  -0.0763000
  -0.5775000  -2.9171000  -1.9401000   1.0149000  -3.6753000  -3.6292000
   3.2979000  -3.3524000  -4.6067000   4.0827000  -1.7771000  -4.5577000
   4.0801000  -3.6733000  -6.8310000   4.8661000  -2.0557000  -6.7810000
   3.7371000  -2.4662000  -8.1172000   1.7319000  -0.2128000  -6.0473000
   2.4980000  -0.4866000  -7.6392000   3.5171000  -0.0552000  -6.2248000
   0.6768000  -2.3804000  -6.1153000   1.4027000  -2.7243000  -7.7128000
   1.6575000  -3.8715000  -6.3547000   2.9486000   0.1883000  -3.5165000
   1.3640000   0.9359000  -1.8394000  -0.2134000   0.4971000   0.4088000
   0.9783000  -0.0104000   1.2798000   0.5647000  -1.1063000   2.2459000
   1.2173000  -2.3410000   2.1684000   0.9698000  -3.3457000   3.1120000
   0.0481000  -3.1457000   4.1498000  -0.1449000  -4.1896000   5.2277000
  -1.2347000  -5.2526000   5.0024000  -1.2427000  -6.1838000   6.2200000
  -2.6089000  -4.6163000   4.8776000  -0.9449000  -6.0857000   3.7652000
  -0.6418000  -1.9254000   4.1979000  -0.3929000  -0.9213000   3.2535000
   0.1051000   1.4219000  -0.0750000  -1.0476000   0.7796000   1.0635000
   1.7206000  -0.4158000   0.5864000   1.9669000  -2.5180000   1.3979000
   1.5434000  -4.2691000   3.0455000   0.7973000  -4.7316000   5.3836000
  -0.3805000  -3.6926000   6.1781000  -1.4629000  -5.5866000   7.1100000
  -0.2573000  -6.6517000   6.3036000  -2.0148000  -6.9446000   6.0707000
  -3.3570000  -5.4137000   4.8278000  -2.7827000  -3.9873000   5.7556000
  -2.6441000  -4.0221000   3.9607000  -1.6852000  -6.8898000   3.7077000
   0.0624000  -6.5030000   3.8541000  -1.0250000  -5.4488000   2.8804000
  -1.3530000  -1.7184000   4.9964000  -0.9208000   0.0265000   3.3478000
   1.6785000   1.1760000   2.0048000   2.8673000   0.8687000   2.9909000
   3.3992000   2.1992000   3.4817000   4.5043000   2.8358000   2.8940000
   5.2349000   3.7683000   3.6184000   4.7807000   4.1627000   4.8760000
   5.5202000   5.2278000   5.6542000   5.1408000   6.6913000   5.3758000
   6.0181000   7.5802000   6.2742000   5.3059000   7.0941000   3.9277000
   3.6872000   6.9643000   5.7130000   3.5474000   3.6857000   5.3419000
   2.8448000   2.7225000   4.6417000   0.9142000   1.7414000   2.5576000
   2.0451000   1.8638000   1.2289000   2.4584000   0.3167000   3.8516000
   4.8983000   2.5129000   1.9345000   6.1982000   4.0956000   3.2309000
   6.5981000   5.1364000   5.4654000   5.3754000   5.0615000   6.7299000
   5.8195000   7.3184000   7.3176000   7.0672000   7.3970000   6.0239000
   5.7590000   8.6267000   6.0879000   5.1938000   8.1793000   3.8431000
   6.2941000   6.7868000   3.6057000   4.5478000   6.5920000   3.3194000
   3.0536000   6.4072000   5.0180000   3.4986000   8.0368000   5.6031000
   3.5030000   6.6506000   6.7447000   3.1982000   3.9026000   6.3414000
   1.9467000   2.2896000   5.0748000   4.0212000   0.0158000   2.4147000
   5.2575000  -0.5684000   3.2836000   5.9551000  -1.3930000   2.1707000
   6.5042000  -0.7289000   1.0557000   6.6905000  -1.3961000  -0.1542000
   6.4318000  -2.7656000  -0.2539000   6.5930000  -3.4949000  -1.5691000
   7.9548000  -4.1455000  -1.8616000   8.2849000  -5.2211000  -0.8398000
   9.0652000  -3.1109000  -1.8895000   7.8711000  -4.8077000  -3.2420000
   5.9908000  -3.4472000   0.8875000   5.7533000  -2.7690000   2.0883000
   4.3970000   0.5370000   1.5266000   3.5358000  -0.8739000   1.9964000
   4.8207000  -1.2517000   4.0257000   6.6518000   0.3501000   1.0775000
   6.9564000  -0.8076000  -1.0288000   6.3893000  -2.8028000  -2.3950000
   5.8417000  -4.2926000  -1.6385000   9.2009000  -5.7283000  -1.1541000
   8.4430000  -4.7489000   0.1324000   7.4526000  -5.9300000  -0.7999000
   9.9939000  -3.6074000  -2.1875000   8.8001000  -2.3339000  -2.6129000
   9.1799000  -2.6844000  -0.8906000   7.6374000  -4.0362000  -3.9790000
   7.0832000  -5.5655000  -3.2152000   8.8366000  -5.2688000  -3.4637000
   5.7900000  -4.5175000   0.8559000   5.3408000  -3.3178000   2.9278000
   6.3427000   0.3389000   4.0163000   6.8039000  -0.0378000   5.4885000
   5.6087000  -0.0269000   6.4307000   4.8239000   1.1186000   6.6188000
   3.7336000   1.1077000   7.4980000   3.3972000  -0.0505000   8.2142000
   2.2529000  -0.0477000   9.2034000   0.8638000  -0.4540000   8.6807000
  -0.1231000  -0.3730000   9.8500000   0.8627000  -1.8805000   8.1556000
   0.3887000   0.4875000   7.5864000   4.1788000  -1.1986000   8.0223000
   5.2686000  -1.1864000   7.1435000   7.2508000   0.3748000   3.4069000
   5.9885000   1.3564000   4.0695000   7.2408000  -1.0473000   5.5155000
   5.0644000   2.0424000   6.0957000   3.1692000   2.0290000   7.6338000
   2.1464000   0.9562000   9.6339000   2.4869000  -0.7228000  10.0366000
  -0.1334000   0.6553000  10.2232000  -1.1160000  -0.6579000   9.4887000
   0.2100000  -1.0621000  10.6308000   1.4962000  -1.9349000   7.2660000
  -0.1642000  -2.1514000   7.8926000   1.2400000  -2.5401000   8.9421000
   1.0312000   0.3680000   6.7107000   0.4333000   1.5125000   7.9656000
  -0.6409000   0.2233000   7.3264000   3.9691000  -2.1140000   8.5740000
   5.8632000  -2.0928000   7.0358000   7.8891000   0.8999000   6.1536000
   9.3478000   0.8969000   5.6176000   9.5927000   2.0811000   4.6544000
   9.7532000   3.3852000   5.1899000  10.0368000   4.4869000   4.3750000
  10.1560000   4.3378000   2.9889000  10.5341000   5.5126000   2.1137000
   9.3986000   6.4151000   1.6071000   8.3893000   5.6272000   0.7850000
   8.7653000   7.1547000   2.7546000  10.0154000   7.4939000   0.7063000
   9.9733000   3.0562000   2.4445000   9.6993000   1.9506000   3.2656000
   7.5196000   1.9311000   6.1954000   7.9905000   0.6087000   7.2226000
   9.9761000   1.1678000   6.4805000   9.6878000   3.5388000   6.2669000
  10.1944000   5.4542000   4.8504000  11.2359000   6.1612000   2.6546000
  11.0657000   5.1455000   1.2256000   7.6509000   6.3244000   0.3766000
   7.8902000   4.9042000   1.4345000   8.9201000   5.1184000  -0.0245000
   8.3158000   6.4238000   3.4267000   9.5337000   7.7254000   3.2859000
   8.0001000   7.8287000   2.3579000  10.7139000   8.0841000   1.3074000
  10.5376000   6.9990000  -0.1185000   9.2115000   8.1291000   0.3191000
  10.0775000   2.8911000   1.3739000   9.5968000   0.9734000   2.7988000
   9.8506000  -0.5347000   5.2260000   9.9429000  -1.5470000   6.4431000
  11.1749000  -1.3204000   7.2605000  10.9846000  -0.9098000   8.5679000
  12.0315000  -1.0094000   9.4507000  13.2744000  -1.5121000   9.0581000
  14.3761000  -1.6777000  10.0808000  15.3394000  -0.4958000  10.2866000
  14.5990000   0.7442000  10.7642000  16.3534000  -0.8998000  11.3644000
  16.0997000  -0.1742000   9.0090000  13.4878000  -1.8523000   7.7219000
  12.4500000  -1.7026000   6.8127000   9.1929000  -0.9498000   4.4534000
  10.8384000  -0.4453000   4.7552000   9.0570000  -1.4002000   7.0734000
  10.0097000  -0.5954000   8.9319000  11.8068000  -0.7384000  10.4593000
  14.9937000  -2.5457000   9.8135000  13.9342000  -1.9003000  11.0612000
  15.3354000   1.5172000  11.0011000  13.9412000   1.0976000   9.9648000
  14.0213000   0.4833000  11.6569000  15.8081000  -1.1242000  12.2860000
  16.8986000  -1.7819000  11.0142000  17.0420000  -0.0649000  11.5226000
  16.5904000  -1.0875000   8.6556000  15.3967000   0.2068000   8.2631000
  16.8454000   0.5948000   9.2340000  14.4287000  -2.2997000   7.3955000
  12.6078000  -2.0153000   5.7834000   9.8963000  -3.0343000   6.0204000
  10.5899000  -4.2713000   6.7528000  10.3284000  -4.6253000   8.2549000
   9.0132000  -4.6771000   8.7164000   8.6752000  -5.0654000  10.0272000
   9.6626000  -5.4153000  10.9583000   9.2926000  -5.7600000  12.3804000
   9.2386000  -4.5943000  13.3892000   8.8561000  -5.1671000  14.7527000
  10.5916000  -3.9105000  13.5105000   8.1925000  -3.5652000  12.9857000
  10.9986000  -5.4517000  10.5327000  11.3232000  -5.0648000   9.1872000
  10.3872000  -3.0031000   5.0492000   8.8411000  -3.2778000   5.8377000
  11.6749000  -4.1669000   6.6552000   8.2248000  -4.4718000   8.0148000
   7.6227000  -5.0488000  10.3048000  10.0073000  -6.4909000  12.7808000
   8.3056000  -6.2406000  12.3992000   9.6162000  -5.8967000  15.0475000
   7.8765000  -5.6465000  14.6646000   8.8150000  -4.3476000  15.4765000
  11.3434000  -4.6677000  13.7515000  10.8277000  -3.4133000  12.5662000
  10.5324000  -3.1672000  14.3117000   8.5105000  -3.0745000  12.0623000
   8.1122000  -2.8228000  13.7860000   7.2361000  -4.0776000  12.8473000
  11.7954000  -5.7415000  11.2155000  12.3847000  -5.1706000   8.9134000
  10.1745000  -5.5063000   5.8858000  10.4451000  -5.5030000   4.3462000
  11.9224000  -5.4635000   3.9917000  12.6922000  -4.3404000   3.6029000
  14.0517000  -4.5123000   3.2445000  14.6305000  -5.7896000   3.2728000
  16.0579000  -5.9997000   2.8293000  16.2830000  -6.3136000   1.3353000
  17.7831000  -6.4896000   1.1090000  15.5767000  -7.5995000   0.9303000
  15.7897000  -5.1758000   0.4528000  13.8713000  -6.8717000   3.7090000
  12.5486000  -6.7130000   4.0648000  10.6765000  -6.3876000   6.3035000
   9.0995000  -5.6924000   6.0286000   9.5444000  -4.6640000   3.4294000
  10.1126000  -6.5172000   4.0633000  12.2889000  -3.3245000   3.5673000
  14.6261000  -3.6433000   2.9281000  16.5031000  -6.8276000   3.3966000
  16.6515000  -5.1047000   3.0572000  17.9531000  -6.7127000   0.0514000
  18.1328000  -7.3174000   1.7332000  18.2868000  -5.5590000   1.3871000
  15.8569000  -7.8372000  -0.1006000  15.8978000  -8.3991000   1.6041000
  14.4958000  -7.4486000   0.9903000  16.0728000  -5.3938000  -0.5817000
  16.2618000  -4.2474000   0.7870000  14.7013000  -5.1100000   0.5282000
  14.2659000  -7.8719000   3.7792000  12.0008000  -7.5990000   4.3908000
  -1.3137000   2.9657000  -4.0703000  -2.7901000   3.6279000  -3.3337000
  -1.2112000   4.2503000  -2.8563000   9.8905000  -3.6421000   3.2622000
   9.5111000  -5.1216000   2.4325000   8.5165000  -4.6360000   3.8047000
