POL
   248
 -24.5167000   7.5124000  -1.0013000 -23.3305000   6.8432000  -1.3296000
 -22.8260000   5.8425000  -0.4949000 -23.5229000   5.4880000   0.6659000
 -23.0196000   4.4387000   1.5849000 -22.3364000   3.2200000   1.0841000
 -21.3347000   2.6487000   1.8792000 -20.7003000   1.4701000   1.4793000
 -21.0730000   0.8531000   0.2819000 -20.5675000  -0.3503000  -0.1631000
 -19.2876000  -0.6826000   0.2157000 -19.0865000  -1.7341000   1.1217000
 -20.2403000  -2.4538000   1.7661000 -20.9317000  -3.2835000   0.7812000
 -22.1358000  -2.9898000   0.2662000 -22.4785000  -3.9883000  -0.5606000
 -23.7314000  -4.0597000  -1.3021000 -21.4646000  -4.9314000  -0.5898000
 -20.4898000  -4.4885000   0.2590000 -17.7645000  -2.0749000   1.4575000
 -16.6765000  -1.3898000   0.9002000 -15.4391000  -1.7779000   1.3662000
 -16.9002000  -0.3460000   0.0014000 -18.2057000  -0.0047000  -0.3556000
 -22.0823000   1.4142000  -0.5069000 -22.7153000   2.5957000  -0.1093000
 -23.1755000   4.5654000   2.7965000 -24.7023000   6.1589000   1.0049000
 -25.2024000   7.1577000   0.1672000 -25.0717000   8.5686000  -1.9126000
 -22.7861000   7.1114000  -2.2331000 -21.8821000   5.3697000  -0.7536000
 -21.0584000   3.1189000   2.8229000 -19.9353000   1.0528000   2.1272000
 -19.8998000  -3.1066000   2.5794000 -20.9445000  -1.7386000   2.2067000
 -22.7295000  -2.1098000   0.4867000 -24.2237000  -3.0835000  -1.2900000
 -24.3800000  -4.8022000  -0.8303000 -23.5256000  -4.3451000  -2.3366000
 -21.5739000  -5.8023000  -1.2138000 -19.5327000  -4.8760000   0.5638000
 -17.5632000  -2.8692000   2.1757000 -16.0765000   0.2234000  -0.4208000
 -18.3764000   0.8013000  -1.0660000 -22.3871000   0.9323000  -1.4322000
 -23.5173000   3.0016000  -0.7232000 -25.2348000   5.9093000   1.9217000
 -26.1263000   7.6656000   0.4385000 -14.3256000  -1.5112000   0.6076000
 -14.1660000  -2.0238000  -0.6799000 -12.9771000  -1.7854000  -1.3755000
 -11.9365000  -1.0546000  -0.7802000 -10.6760000  -0.8750000  -1.5495000
  -9.5132000  -0.1870000  -0.9725000  -9.3998000   1.1995000  -1.0845000
  -8.2152000   1.8197000  -0.6813000  -7.1463000   1.0583000  -0.1894000
  -5.9906000   1.7735000   0.0521000  -4.8756000   1.0831000   0.4618000
  -3.8816000   0.7136000  -0.4599000  -4.0076000   1.0227000  -1.9301000
  -4.7611000  -0.0361000  -2.6090000  -5.9876000   0.1303000  -3.1318000
  -6.3783000  -1.0466000  -3.6412000  -7.6834000  -1.3003000  -4.2450000
  -5.3595000  -1.9712000  -3.4987000  -4.3343000  -1.3326000  -2.8590000
  -2.7423000   0.0361000   0.0224000  -2.5999000  -0.2426000   1.3876000
  -1.5533000  -0.9321000   1.9604000  -3.5935000   0.1579000   2.2836000
  -4.7226000   0.8323000   1.8276000  -7.2865000  -0.3279000  -0.0516000
  -8.4669000  -0.9543000  -0.4555000 -10.5361000  -1.3142000  -2.6885000
 -12.0988000  -0.5609000   0.5210000 -13.2924000  -0.7938000   1.2127000
 -14.9498000  -2.6196000  -1.1406000 -12.8604000  -2.1890000  -2.3805000
 -10.2080000   1.7926000  -1.5081000  -8.1146000   2.8999000  -0.7771000
  -3.0201000   1.0977000  -2.4013000  -4.5068000   1.9848000  -2.0883000
  -6.5663000   1.0464000  -3.1328000  -7.5430000  -1.5567000  -5.2990000
  -8.3064000  -0.4065000  -4.1697000  -8.1604000  -2.1320000  -3.7214000
  -5.5013000  -2.9703000  -3.8744000  -3.3533000  -1.6391000  -2.5392000
  -1.9679000  -0.2693000  -0.6774000  -3.4834000  -0.0506000   3.3461000
  -5.4822000   1.1561000   2.5354000  -6.4806000  -0.9483000   0.3312000
  -8.5557000  -2.0366000  -0.3934000 -11.3127000  -0.0050000   1.0238000
 -13.4118000  -0.4258000   2.2291000  -0.3967000  -1.0871000   1.2406000
   0.5552000  -0.0646000   1.2144000   1.7704000  -0.2683000   0.5560000
   2.0227000  -1.5015000  -0.0548000   3.2952000  -1.7489000  -0.7596000
   4.5964000  -1.7848000  -0.0309000   4.6755000  -1.7973000   1.3678000
   5.9214000  -1.8733000   2.0006000   7.0931000  -1.9341000   1.2437000
   8.2731000  -2.0878000   1.9338000   9.3449000  -1.2830000   1.6010000
  10.6324000  -1.8417000   1.7097000  10.8321000  -3.2805000   2.1096000
  10.9436000  -3.3627000   3.5663000   9.8968000  -3.4916000   4.3947000
  10.3742000  -3.5536000   5.6475000   9.5532000  -3.6920000   6.8438000
  11.7545000  -3.4471000   5.6205000  12.1147000  -3.3333000   4.3074000
  11.7546000  -1.0218000   1.4725000  11.5921000   0.3183000   1.1122000
  12.6328000   1.2002000   0.9444000  10.3112000   0.8624000   1.0259000
   9.1900000   0.0691000   1.2754000   7.0247000  -1.9444000  -0.1498000
   5.7791000  -1.8621000  -0.7828000   3.2447000  -1.9522000  -1.9685000
   1.0630000  -2.5204000  -0.0361000  -0.1442000  -2.3180000   0.6322000
   0.3562000   0.8796000   1.7153000   2.5076000   0.5304000   0.5222000
   3.7832000  -1.7706000   1.9874000   5.9703000  -1.8867000   3.0868000
  10.0061000  -3.9182000   1.7759000  11.7441000  -3.6875000   1.6568000
   8.8527000  -3.5466000   4.1067000  10.0593000  -4.3405000   7.5637000
   9.3964000  -2.7020000   7.2797000   8.5886000  -4.1332000   6.5787000
  12.3032000  -3.4698000   6.5469000  13.0590000  -3.2316000   3.8004000
  12.7581000  -1.4262000   1.5858000  10.1852000   1.9158000   0.7814000
   8.2058000   0.5297000   1.2319000   7.9229000  -2.0289000  -0.7564000
   5.7329000  -1.8760000  -1.8718000   1.2627000  -3.4701000  -0.5278000
  -0.8795000  -3.1163000   0.6850000  13.7777000   0.8051000   0.2936000
  13.8019000  -0.0445000  -0.8120000  15.0185000  -0.3289000  -1.4447000
  16.2161000   0.2521000  -0.9976000  17.4680000  -0.0433000  -1.7542000
  18.8173000   0.2639000  -1.2228000  19.1928000  -0.0893000   0.0782000
  20.4858000   0.1938000   0.5275000  21.3978000   0.8267000  -0.3199000
  22.6691000   1.0322000   0.1602000  23.1942000   2.3098000   0.1413000
  24.6099000   2.4428000   0.1635000  25.4870000   1.2022000   0.1353000
  25.8208000   0.8823000  -1.2538000  26.8205000   1.4498000  -1.9452000
  26.8282000   0.9048000  -3.1704000  27.7750000   1.2471000  -4.2249000
  25.8110000  -0.0298000  -3.2655000  25.1715000  -0.0408000  -2.0578000
  25.2285000   3.7441000   0.2445000  24.4617000   4.9096000   0.3179000
  24.9429000   6.1426000   0.7540000  23.0567000   4.7524000   0.2908000
  22.4214000   3.4795000   0.1965000  21.0436000   1.1373000  -1.6344000
  19.7509000   0.8563000  -2.0843000  17.3947000  -0.5505000  -2.8708000
  16.1762000   1.1372000   0.0854000  14.9623000   1.4048000   0.7293000
  12.8867000  -0.4670000  -1.2163000  15.0234000  -0.9842000  -2.3153000
  18.5007000  -0.6041000   0.7399000  20.7826000  -0.0846000   1.5360000
  25.0188000   0.3350000   0.6120000  26.4177000   1.3933000   0.6823000
  27.5024000   2.2103000  -1.5807000  27.2426000   1.3382000  -5.1754000
  28.5286000   0.4584000  -4.2925000  28.2593000   2.1990000  -3.9912000
  25.6754000  -0.5675000  -4.1883000  24.3357000  -0.5916000  -1.6617000
  26.3077000   3.8226000   0.3429000  22.4287000   5.6362000   0.4089000
  21.3188000   3.4116000   0.2166000  21.7605000   1.5918000  -2.3125000
  19.4712000   1.0920000  -3.1097000  17.0656000   1.6594000   0.4258000
  14.9374000   2.1094000   1.5579000  25.9081000   6.9241000   0.1217000
  25.4960000   8.1440000  -0.4328000  26.4171000   9.2015000  -0.7139000
  27.7953000   9.1030000  -0.4385000  28.7076000  10.3402000  -0.7218000
  30.0904000  10.4806000  -0.1982000  30.4488000  10.0296000   1.0781000
  31.7534000  10.2185000   1.5433000  32.6901000  10.8809000   0.7475000
  33.9609000  11.0161000   1.2616000  34.5666000  12.2476000   1.1236000
  35.8798000  12.2881000   0.6279000  36.6119000  11.0334000   0.2431000
  37.1407000  10.4031000   1.4539000  38.1286000  10.9097000   2.2064000
  38.3368000  10.0637000   3.2268000  39.3261000  10.2612000   4.2776000
  37.4460000   9.0071000   3.1377000  36.6920000   9.2202000   2.0188000
  36.5151000  13.5362000   0.5188000  35.8701000  14.7152000   0.9071000
  36.6238000  15.8435000   0.7478000  34.5748000  14.6554000   1.4185000
  33.9219000  13.4220000   1.5345000  32.3405000  11.3259000  -0.5298000
  31.0375000  11.1370000  -0.9950000  28.2613000  11.2184000  -1.4552000
  28.2104000   7.8540000   0.0667000  27.2803000   6.7939000   0.3678000
  24.4340000   8.3325000  -0.5854000  26.0208000  10.1352000  -1.1171000
  29.7194000   9.5531000   1.7291000  32.0261000   9.8704000   2.5362000
  37.4549000  11.2516000  -0.4229000  35.9560000  10.3366000  -0.2904000
  38.6643000  11.8347000   2.0251000  40.0901000  10.9653000   3.9373000
  38.8253000  10.6616000   5.1629000  39.7998000   9.3054000   4.5174000
  37.4643000   8.2378000   3.8904000  35.8837000   8.6850000   1.5507000
  37.5269000  13.6181000   0.1218000  35.9935000  17.0900000   1.0273000
  34.0553000  15.5559000   1.7375000  32.9156000  13.3873000   1.9467000
  33.0602000  11.8287000  -1.1695000  30.7564000  11.5067000  -1.9804000
  29.2617000   7.6716000   0.2757000  27.6550000   5.9071000   0.8723000
 -25.6249000   9.3237000  -1.3442000 -24.2673000   9.0877000  -2.4443000
 -25.7445000   8.1133000  -2.6458000  35.7317000  17.1671000   2.0876000
  36.7109000  17.8849000   0.8016000  35.1157000  17.2406000   0.3903000
