%VERSION  VERSION_STAMP = V0001.000  DATE = 08/20/26  12:36:48                  
%FLAG TITLE                                                                     
%FORMAT(20a4)                                                                   
POL                                                                             
%FLAG POINTERS                                                                  
%FORMAT(10I8)                                                                   
     248      10     101     166     207     235     402     358       0       0
    1328       1     166     235     358      16      28      14      13       0
       0       0       0       0       0       0       0       0     248       0
       0
%FLAG ATOM_NAME                                                                 
%FORMAT(20a4)                                                                   
C1  C2  C3  C4  C5  C6  C7  C8  C9  O1  C10 C11 C12 N1  C13 N2  C14 C15 C16 C17 
C18 O2  C19 C20 C21 C22 O3  C23 C24 C25 H1  H2  H3  H4  H5  H6  H7  H8  H9  H10 
H11 H12 H13 H14 H15 H16 H17 H18 H19 C26 C27 C28 C29 C30 C31 C32 C33 C34 O4  C35 
C36 C37 N3  C38 N4  C39 C40 C41 C42 C43 O5  C44 C45 C46 C47 O6  C48 C49 H20 H21 
H22 H23 H24 H25 H26 H27 H28 H29 H30 H31 H32 H33 H34 H35 H36 H37 H38 C50 C51 C52 
C53 C54 C55 C56 C57 C58 O7  C59 C60 C61 N5  C62 N6  C63 C64 C65 C66 C67 O8  C68 
C69 C70 C71 O9  C72 C73 H39 H40 H41 H42 H43 H44 H45 H46 H47 H48 H49 H50 H51 H52 
H53 H54 H55 H56 H57 C74 C75 C76 C77 C78 C79 C80 C81 C82 O10 C83 C84 C85 N7  C86 
N8  C87 C88 C89 C90 C91 O11 C92 C93 C94 C95 O12 C96 C97 H58 H59 H60 H61 H62 H63 
H64 H65 H66 H67 H68 H69 H70 H71 H72 H73 H74 H75 H76 C98 C99 C100C101C102C103C104
C105C106O13 C107C108C109N9  C110N10 C111C112C113C114C115O14 C116C117C118C119O15 
C120C121H77 H78 H79 H80 H81 H82 H83 H84 H85 H86 H87 H88 H89 C122H90 H91 H92 H93 
H94 H95 H96 H97 H98 H99 H100H101
%FLAG CHARGE                                                                    
%FORMAT(5E16.8)                                                                 
 -5.34879172E-01 -2.50653203E+00 -1.31297138E+00 -3.25546856E+00  1.07019568E+01
 -2.79991106E+00 -9.94081132E-01 -2.87097803E+00  1.87775335E+00 -5.52500136E+00
  1.60441885E+00 -2.39355377E+00  1.70464150E+00 -3.11601330E-01 -1.39455262E-01
 -5.30268930E-01  1.01079098E-01 -2.19310847E+00 -2.06555237E+00 -2.00541878E+00
  2.44264465E+00 -5.79286917E+00 -2.60675468E+00 -2.04186338E+00 -2.87097803E+00
 -9.94081132E-01 -9.36808443E+00 -1.31297138E+00 -2.50653203E+00 -1.07243702E+00
  2.71415692E+00  2.74149037E+00  3.10593637E+00  2.79615727E+00  2.00713168E+00
  2.00713168E+00  5.13772282E+00  1.80364325E+00  1.80364325E+00  1.80364325E+00
  4.29949702E+00  4.28127472E+00  3.04215832E+00  3.09682522E+00  3.18793672E+00
  2.79615727E+00  3.10593637E+00  2.74149037E+00  2.71415692E+00 -5.34879172E-01
 -2.50653203E+00 -1.31297138E+00 -3.25546856E+00  1.07019568E+01 -2.79991106E+00
 -9.94081132E-01 -2.87097803E+00  1.87775335E+00 -5.52500136E+00  1.60441885E+00
 -2.39355377E+00  1.70464150E+00 -3.11601330E-01 -1.39455262E-01 -5.30268930E-01
  1.01079098E-01 -2.19310847E+00 -2.06555237E+00 -2.00541878E+00  2.44264465E+00
 -5.79286917E+00 -2.60675468E+00 -2.04186338E+00 -2.87097803E+00 -9.94081132E-01
 -9.36808443E+00 -1.31297138E+00 -2.50653203E+00  2.71415692E+00  2.74149037E+00
  3.10593637E+00  2.79615727E+00  2.00713168E+00  2.00713168E+00  5.13772282E+00
  1.80364325E+00  1.80364325E+00  1.80364325E+00  4.29949702E+00  4.28127472E+00
  3.04215832E+00  3.09682522E+00  3.18793672E+00  2.79615727E+00  3.10593637E+00
  2.74149037E+00  2.71415692E+00 -5.34879172E-01 -2.50653203E+00 -1.31297138E+00
 -3.25546856E+00  1.07019568E+01 -2.79991106E+00 -9.94081132E-01 -2.87097803E+00
  1.87775335E+00 -5.52500136E+00  1.60441885E+00 -2.39355377E+00  1.70464150E+00
 -3.11601330E-01 -1.39455262E-01 -5.30268930E-01  1.01079098E-01 -2.19310847E+00
 -2.06555237E+00 -2.00541878E+00  2.44264465E+00 -5.79286917E+00 -2.60675468E+00
 -2.04186338E+00 -2.87097803E+00 -9.94081132E-01 -9.36808443E+00 -1.31297138E+00
 -2.50653203E+00  2.71415692E+00  2.74149037E+00  3.10593637E+00  2.79615727E+00
  2.00713168E+00  2.00713168E+00  5.13772282E+00  1.80364325E+00  1.80364325E+00
  1.80364325E+00  4.29949702E+00  4.28127472E+00  3.04215832E+00  3.09682522E+00
  3.18793672E+00  2.79615727E+00  3.10593637E+00  2.74149037E+00  2.71415692E+00
 -5.34879172E-01 -2.50653203E+00 -1.31297138E+00 -3.25546856E+00  1.07019568E+01
 -2.79991106E+00 -9.94081132E-01 -2.87097803E+00  1.87775335E+00 -5.52500136E+00
  1.60441885E+00 -2.39355377E+00  1.70464150E+00 -3.11601330E-01 -1.39455262E-01
 -5.30268930E-01  1.01079098E-01 -2.19310847E+00 -2.06555237E+00 -2.00541878E+00
  2.44264465E+00 -5.79286917E+00 -2.60675468E+00 -2.04186338E+00 -2.87097803E+00
 -9.94081132E-01 -9.36808443E+00 -1.31297138E+00 -2.50653203E+00  2.71415692E+00
  2.74149037E+00  3.10593637E+00  2.79615727E+00  2.00713168E+00  2.00713168E+00
  5.13772282E+00  1.80364325E+00  1.80364325E+00  1.80364325E+00  4.29949702E+00
  4.28127472E+00  3.04215832E+00  3.09682522E+00  3.18793672E+00  2.79615727E+00
  3.10593637E+00  2.74149037E+00  2.71415692E+00 -5.34879172E-01 -2.50653203E+00
 -1.31297138E+00 -3.25546856E+00  1.07019568E+01 -2.79991106E+00 -9.94081132E-01
 -2.87097803E+00  1.87775335E+00 -5.52500136E+00  1.60441885E+00 -2.39355377E+00
  1.70464150E+00 -3.11601330E-01 -1.39455262E-01 -5.30268930E-01  1.01079098E-01
 -2.19310847E+00 -2.06555237E+00 -2.00541878E+00  2.44264465E+00 -5.79286917E+00
 -2.60675468E+00 -2.04186338E+00 -2.87097803E+00 -9.94081132E-01 -9.36808443E+00
 -1.31297138E+00 -2.50653203E+00  2.71415692E+00  2.74149037E+00  3.10593637E+00
  2.79615727E+00  2.00713168E+00  2.00713168E+00  5.13772282E+00  1.80364325E+00
  1.80364325E+00  1.80364325E+00  4.29949702E+00  4.28127472E+00  3.04215832E+00
  2.08913203E+00  3.09682522E+00  3.18793672E+00  2.79615727E+00  3.10593637E+00
  2.74149037E+00  2.71415692E+00  1.11119585E+00  1.11119585E+00  1.11119585E+00
  1.11119585E+00  1.11119585E+00  1.11119585E+00
%FLAG ATOMIC_NUMBER                                                             
%FORMAT(10I8)                                                                   
       6       6       6       6       6       6       6       6       6       8
       6       6       6       7       6       7       6       6       6       6
       6       8       6       6       6       6       8       6       6       6
       1       1       1       1       1       1       1       1       1       1
       1       1       1       1       1       1       1       1       1       6
       6       6       6       6       6       6       6       6       8       6
       6       6       7       6       7       6       6       6       6       6
       8       6       6       6       6       8       6       6       1       1
       1       1       1       1       1       1       1       1       1       1
       1       1       1       1       1       1       1       6       6       6
       6       6       6       6       6       6       8       6       6       6
       7       6       7       6       6       6       6       6       8       6
       6       6       6       8       6       6       1       1       1       1
       1       1       1       1       1       1       1       1       1       1
       1       1       1       1       1       6       6       6       6       6
       6       6       6       6       8       6       6       6       7       6
       7       6       6       6       6       6       8       6       6       6
       6       8       6       6       1       1       1       1       1       1
       1       1       1       1       1       1       1       1       1       1
       1       1       1       6       6       6       6       6       6       6
       6       6       8       6       6       6       7       6       7       6
       6       6       6       6       8       6       6       6       6       8
       6       6       1       1       1       1       1       1       1       1
       1       1       1       1       1       6       1       1       1       1
       1       1       1       1       1       1       1       1
%FLAG MASS                                                                      
%FORMAT(5E16.8)                                                                 
  1.20100000E+01  1.20100000E+01  1.20100000E+01  1.20100000E+01  1.20100000E+01
  1.20100000E+01  1.20100000E+01  1.20100000E+01  1.20100000E+01  1.60000000E+01
  1.20100000E+01  1.20100000E+01  1.20100000E+01  1.40100000E+01  1.20100000E+01
  1.40100000E+01  1.20100000E+01  1.20100000E+01  1.20100000E+01  1.20100000E+01
  1.20100000E+01  1.60000000E+01  1.20100000E+01  1.20100000E+01  1.20100000E+01
  1.20100000E+01  1.60000000E+01  1.20100000E+01  1.20100000E+01  1.20100000E+01
  1.00800000E+00  1.00800000E+00  1.00800000E+00  1.00800000E+00  1.00800000E+00
  1.00800000E+00  1.00800000E+00  1.00800000E+00  1.00800000E+00  1.00800000E+00
  1.00800000E+00  1.00800000E+00  1.00800000E+00  1.00800000E+00  1.00800000E+00
  1.00800000E+00  1.00800000E+00  1.00800000E+00  1.00800000E+00  1.20100000E+01
  1.20100000E+01  1.20100000E+01  1.20100000E+01  1.20100000E+01  1.20100000E+01
  1.20100000E+01  1.20100000E+01  1.20100000E+01  1.60000000E+01  1.20100000E+01
  1.20100000E+01  1.20100000E+01  1.40100000E+01  1.20100000E+01  1.40100000E+01
  1.20100000E+01  1.20100000E+01  1.20100000E+01  1.20100000E+01  1.20100000E+01
  1.60000000E+01  1.20100000E+01  1.20100000E+01  1.20100000E+01  1.20100000E+01
  1.60000000E+01  1.20100000E+01  1.20100000E+01  1.00800000E+00  1.00800000E+00
  1.00800000E+00  1.00800000E+00  1.00800000E+00  1.00800000E+00  1.00800000E+00
  1.00800000E+00  1.00800000E+00  1.00800000E+00  1.00800000E+00  1.00800000E+00
  1.00800000E+00  1.00800000E+00  1.00800000E+00  1.00800000E+00  1.00800000E+00
  1.00800000E+00  1.00800000E+00  1.20100000E+01  1.20100000E+01  1.20100000E+01
  1.20100000E+01  1.20100000E+01  1.20100000E+01  1.20100000E+01  1.20100000E+01
  1.20100000E+01  1.60000000E+01  1.20100000E+01  1.20100000E+01  1.20100000E+01
  1.40100000E+01  1.20100000E+01  1.40100000E+01  1.20100000E+01  1.20100000E+01
  1.20100000E+01  1.20100000E+01  1.20100000E+01  1.60000000E+01  1.20100000E+01
  1.20100000E+01  1.20100000E+01  1.20100000E+01  1.60000000E+01  1.20100000E+01
  1.20100000E+01  1.00800000E+00  1.00800000E+00  1.00800000E+00  1.00800000E+00
  1.00800000E+00  1.00800000E+00  1.00800000E+00  1.00800000E+00  1.00800000E+00
  1.00800000E+00  1.00800000E+00  1.00800000E+00  1.00800000E+00  1.00800000E+00
  1.00800000E+00  1.00800000E+00  1.00800000E+00  1.00800000E+00  1.00800000E+00
  1.20100000E+01  1.20100000E+01  1.20100000E+01  1.20100000E+01  1.20100000E+01
  1.20100000E+01  1.20100000E+01  1.20100000E+01  1.20100000E+01  1.60000000E+01
  1.20100000E+01  1.20100000E+01  1.20100000E+01  1.40100000E+01  1.20100000E+01
  1.40100000E+01  1.20100000E+01  1.20100000E+01  1.20100000E+01  1.20100000E+01
  1.20100000E+01  1.60000000E+01  1.20100000E+01  1.20100000E+01  1.20100000E+01
  1.20100000E+01  1.60000000E+01  1.20100000E+01  1.20100000E+01  1.00800000E+00
  1.00800000E+00  1.00800000E+00  1.00800000E+00  1.00800000E+00  1.00800000E+00
  1.00800000E+00  1.00800000E+00  1.00800000E+00  1.00800000E+00  1.00800000E+00
  1.00800000E+00  1.00800000E+00  1.00800000E+00  1.00800000E+00  1.00800000E+00
  1.00800000E+00  1.00800000E+00  1.00800000E+00  1.20100000E+01  1.20100000E+01
  1.20100000E+01  1.20100000E+01  1.20100000E+01  1.20100000E+01  1.20100000E+01
  1.20100000E+01  1.20100000E+01  1.60000000E+01  1.20100000E+01  1.20100000E+01
  1.20100000E+01  1.40100000E+01  1.20100000E+01  1.40100000E+01  1.20100000E+01
  1.20100000E+01  1.20100000E+01  1.20100000E+01  1.20100000E+01  1.60000000E+01
  1.20100000E+01  1.20100000E+01  1.20100000E+01  1.20100000E+01  1.60000000E+01
  1.20100000E+01  1.20100000E+01  1.00800000E+00  1.00800000E+00  1.00800000E+00
  1.00800000E+00  1.00800000E+00  1.00800000E+00  1.00800000E+00  1.00800000E+00
  1.00800000E+00  1.00800000E+00  1.00800000E+00  1.00800000E+00  1.00800000E+00
  1.20100000E+01  1.00800000E+00  1.00800000E+00  1.00800000E+00  1.00800000E+00
  1.00800000E+00  1.00800000E+00  1.00800000E+00  1.00800000E+00  1.00800000E+00
  1.00800000E+00  1.00800000E+00  1.00800000E+00
%FLAG ATOM_TYPE_INDEX                                                           
%FORMAT(10I8)                                                                   
       1       1       1       1       1       1       1       1       1       2
       1       1       3       4       1       4       3       1       1       1
       1       2       1       1       1       1       5       1       1       3
       6       6       6       6       7       7       8       7       7       7
       9       9       6       6       6       6       6       6       6       1
       1       1       1       1       1       1       1       1       2       1
       1       3       4       1       4       3       1       1       1       1
       2       1       1       1       1       5       1       1       6       6
       6       6       7       7       8       7       7       7       9       9
       6       6       6       6       6       6       6       1       1       1
       1       1       1       1       1       1       2       1       1       3
       4       1       4       3       1       1       1       1       2       1
       1       1       1       5       1       1       6       6       6       6
       7       7       8       7       7       7       9       9       6       6
       6       6       6       6       6       1       1       1       1       1
       1       1       1       1       2       1       1       3       4       1
       4       3       1       1       1       1       2       1       1       1
       1       5       1       1       6       6       6       6       7       7
       8       7       7       7       9       9       6       6       6       6
       6       6       6       1       1       1       1       1       1       1
       1       1       2       1       1       3       4       1       4       3
       1       1       1       1       2       1       1       1       1       5
       1       1       6       6       6       6       7       7       8       7
       7       7       9       9       6       3       6       6       6       6
       6       6      10      10      10      10      10      10
%FLAG NUMBER_EXCLUDED_ATOMS                                                     
%FORMAT(10I8)                                                                   
      13      12      10      11      12      11       9       8      10      11
      13      13      13      11      12       9       7       7       5       9
       9      11       5       2       4       4       1       5       7       5
       1       1       1       1       1       1       1       2       1       1
       1       1       1       1       1       1       1       1       1       9
       8       9      11      12      11       9       8      10      11      13
      13      13      11      12       9       7       7       5       9       9
      11       5       2       4       4       1       4       3       1       1
       1       1       1       1       1       2       1       1       1       1
       1       1       1       1       1       1       1       9       8       9
      11      12      11       9       8      10      11      13      13      13
      11      12       9       7       7       5       9       9      11       5
       2       4       4       1       4       3       1       1       1       1
       1       1       1       2       1       1       1       1       1       1
       1       1       1       1       1       9       8       9      11      12
      11       9       8      10      11      13      13      13      11      12
       9       7       7       5       9       9      11       5       2       4
       4       1       4       3       1       1       1       1       1       1
       1       2       1       1       1       1       1       1       1       1
       1       1       1       9       8       9      11      12      11       9
       8      10      11      13      13      13      11      12       9       7
       7       5       9      10       8       5       2       4       4       1
       4       3       1       1       1       1       1       1       1       2
       1       1       1       1       1       3       1       1       1       1
       1       1       2       1       1       2       1       1
%FLAG NONBONDED_PARM_INDEX                                                      
%FORMAT(10I8)                                                                   
       1       2       4       7      11      16      22      29      37      46
       2       3       5       8      12      17      23      30      38      47
       4       5       6       9      13      18      24      31      39      48
       7       8       9      10      14      19      25      32      40      49
      11      12      13      14      15      20      26      33      41      50
      16      17      18      19      20      21      27      34      42      51
      22      23      24      25      26      27      28      35      43      52
      29      30      31      32      33      34      35      36      44      53
      37      38      39      40      41      42      43      44      45      54
      46      47      48      49      50      51      52      53      54      55
%FLAG RESIDUE_LABEL                                                             
%FORMAT(20a4)                                                                   
POL 
%FLAG RESIDUE_POINTER                                                           
%FORMAT(10I8)                                                                   
       1
%FLAG BOND_FORCE_CONSTANT                                                       
%FORMAT(5E16.8)                                                                 
  3.54250000E+02  2.43910000E+02  3.60690000E+02  2.62840000E+02  5.90600000E+02
  3.43340000E+02  2.54790000E+02  3.44220000E+02  3.35500000E+02  3.32450000E+02
  3.66970000E+02  3.86240000E+02  3.68720000E+02  3.67290000E+02  3.45250000E+02
  2.82270000E+02
%FLAG BOND_EQUIL_VALUE                                                          
%FORMAT(5E16.8)                                                                 
  1.39860000E+00  1.51470000E+00  1.08600000E+00  1.49070000E+00  1.21900000E+00
  1.36880000E+00  1.46390000E+00  1.09690000E+00  1.38030000E+00  1.38300000E+00
  1.08200000E+00  1.37300000E+00  1.08090000E+00  1.08180000E+00  1.09620000E+00
  1.42730000E+00
%FLAG ANGLE_FORCE_CONSTANT                                                      
%FORMAT(5E16.8)                                                                 
  6.36700000E+01  4.49000000E+01  4.36100000E+01  6.07400000E+01  6.14400000E+01
  6.02700000E+01  7.79600000E+01  7.90000000E+01  8.96700000E+01  6.53500000E+01
  4.38100000E+01  7.52100000E+01  7.54900000E+01  4.81000000E+01  7.61600000E+01
  4.78300000E+01  7.19900000E+01  4.80800000E+01  7.95900000E+01  8.31100000E+01
  7.28100000E+01  4.79900000E+01  4.42000000E+01  4.39500000E+01  3.56400000E+01
  8.82600000E+01  6.27000000E+01  3.58000000E+01
%FLAG ANGLE_EQUIL_VALUE                                                         
%FORMAT(5E16.8)                                                                 
  2.09474507E+00  2.09230160E+00  1.93085858E+00  2.10888224E+00  2.10015559E+00
  2.05826767E+00  2.13977458E+00  2.07886256E+00  2.09212707E+00  1.97396823E+00
  1.91288168E+00  2.21046045E+00  2.19038915E+00  1.89822091E+00  1.90869289E+00
  2.12546287E+00  1.90223517E+00  2.09736306E+00  2.09806119E+00  1.92824058E+00
  1.86313978E+00  2.11202383E+00  2.22773921E+00  2.25339556E+00  1.89455572E+00
  2.06629619E+00  1.89717371E+00  1.88024401E+00
%FLAG DIHEDRAL_FORCE_CONSTANT                                                   
%FORMAT(5E16.8)                                                                 
  3.62500000E+00  0.00000000E+00  1.25000000E+00  5.80000000E-01  9.00000000E-01
  2.95000000E-01  0.00000000E+00  5.61666667E-01  1.70000000E+00  4.00000000E+00
  1.66000000E+00  3.83333333E-01  1.10000000E+00  1.05000000E+01
%FLAG DIHEDRAL_PERIODICITY                                                      
%FORMAT(5E16.8)                                                                 
  2.00000000E+00  1.00000000E+00  2.00000000E+00  2.00000000E+00  2.00000000E+00
  2.00000000E+00  2.00000000E+00  2.00000000E+00  2.00000000E+00  2.00000000E+00
  2.00000000E+00  3.00000000E+00  2.00000000E+00  2.00000000E+00
%FLAG DIHEDRAL_PHASE                                                            
%FORMAT(5E16.8)                                                                 
  3.14159400E+00  0.00000000E+00  3.14159400E+00  3.14159400E+00  3.14159400E+00
  3.14159400E+00  0.00000000E+00  0.00000000E+00  3.14159400E+00  3.14159400E+00
  3.14159400E+00  0.00000000E+00  3.14159400E+00  3.14159400E+00
%FLAG SCEE_SCALE_FACTOR                                                         
%FORMAT(5E16.8)                                                                 
  1.20000000E+00  1.20000000E+00  1.20000000E+00  1.20000000E+00  1.20000000E+00
  1.20000000E+00  1.20000000E+00  1.20000000E+00  1.20000000E+00  1.20000000E+00
  1.20000000E+00  1.20000000E+00  0.00000000E+00  0.00000000E+00
%FLAG SCNB_SCALE_FACTOR                                                         
%FORMAT(5E16.8)                                                                 
  2.00000000E+00  2.00000000E+00  2.00000000E+00  2.00000000E+00  2.00000000E+00
  2.00000000E+00  2.00000000E+00  2.00000000E+00  2.00000000E+00  2.00000000E+00
  2.00000000E+00  2.00000000E+00  0.00000000E+00  0.00000000E+00
%FLAG SOLTY                                                                     
%FORMAT(5E16.8)                                                                 
  0.00000000E+00  0.00000000E+00  0.00000000E+00  0.00000000E+00  0.00000000E+00
  0.00000000E+00  0.00000000E+00  0.00000000E+00  0.00000000E+00  0.00000000E+00
  0.00000000E+00  0.00000000E+00  0.00000000E+00
%FLAG LENNARD_JONES_ACOEF                                                       
%FORMAT(5E16.8)                                                                 
  6.96551276E+05  4.46121722E+05  2.83662575E+05  8.43969952E+05  5.42502534E+05
  1.02073671E+06  8.20152428E+05  5.22690526E+05  9.96191545E+05  9.62429652E+05
  5.17507491E+05  3.27367585E+05  6.30925504E+05  6.04208667E+05  3.76435470E+05
  7.52549148E+04  4.65732396E+04  9.27554496E+04  8.65595848E+04  5.27277400E+04
  6.90855956E+03  5.63013422E+04  3.44374471E+04  6.97998263E+04  6.42436358E+04
  3.86646725E+04  4.88692384E+03  3.39005767E+03  5.22195041E+04  3.19887757E+04
  6.46910138E+04  5.96470418E+04  3.59538577E+04  4.56536476E+03  3.17496391E+03
  2.97255425E+03  6.27751680E+04  3.86549715E+04  7.75673747E+04  7.19580450E+04
  4.36069364E+04  5.62610481E+03  3.94664935E+03  3.69092714E+03  4.56536476E+03
  8.12662403E+04  5.02224902E+04  1.00235148E+05  9.33839501E+04  5.68021765E+04
  7.41026906E+03  5.22955465E+03  4.88692384E+03  6.02863188E+03  7.94617769E+03
%FLAG LENNARD_JONES_BCOEF                                                       
%FORMAT(5E16.8)                                                                 
  5.24668528E+02  3.88758656E+02  2.87011518E+02  5.90251928E+02  4.38146883E+02
  6.63431737E+02  6.82622272E+02  5.04545572E+02  7.68900328E+02  8.86629877E+02
  4.98871431E+02  3.67361018E+02  5.62969425E+02  6.46321327E+02  4.69350655E+02
  1.09570372E+02  7.98066064E+01  1.24325688E+02  1.40899023E+02  1.01173582E+02
  2.10929191E+01  1.01040256E+02  7.31636661E+01  1.14981426E+02  1.29412081E+02
  9.23664132E+01  1.89134207E+01  1.67944276E+01  9.12729468E+01  6.61407978E+01
  1.03827676E+02  1.16962018E+02  8.35449674E+01  1.71467049E+01  1.52447987E+01
  1.38359132E+01  1.00073628E+02  7.27065100E+01  1.13692208E+02  1.28466555E+02
  9.20079458E+01  1.90347353E+01  1.69967767E+01  1.54173833E+01  1.71467049E+01
  1.21392023E+02  8.83545880E+01  1.37787728E+02  1.56025608E+02  1.11953944E+02
  2.32899892E+01  2.08590256E+01  1.89134207E+01  2.10068861E+01  2.57122925E+01
%FLAG BONDS_INC_HYDROGEN                                                        
%FORMAT(10I8)                                                                   
       3      90       3       6      93       3      18      96       3      21
      99       3      36     102       8      36     105       8      42     108
      11      48     111       8      48     114       8      48     117       8
      51     120      13      54     123      14      57     126       3      66
     129       3      69     132       3      72     135       3      75     138
       3      81     141       3      84     144       3      87     726      15
      87     729      15      87     732      15     150     234       3     153
     237       3     165     240       3     168     243       3     183     246
       8     183     249       8     189     252      11     195     255       8
     195     258       8     195     261       8     198     264      13     201
     267      14     204     270       3     213     273       3     216     276
       3     219     279       3     222     282       3     228     285       3
     231     288       3     294     378       3     297     381       3     309
     384       3     312     387       3     327     390       8     327     393
       8     333     396      11     339     399       8     339     402       8
     339     405       8     342     408      13     345     411      14     348
     414       3     357     417       3     360     420       3     363     423
       3     366     426       3     372     429       3     375     432       3
     438     522       3     441     525       3     453     528       3     456
     531       3     471     534       8     471     537       8     477     540
      11     483     543       8     483     546       8     483     549       8
     486     552      13     489     555      14     492     558       3     501
     561       3     504     564       3     507     567       3     510     570
       3     516     573       3     519     576       3     582     666       3
     585     669       3     597     672       3     600     675       3     615
     678       8     615     681       8     621     684      11     627     687
       8     627     690       8     627     693       8     630     696      13
     633     699      14     636     702       3     645     708       3     648
     711       3     651     714       3     654     717       3     660     720
       3     663     723       3     705     735      15     705     738      15
     705     741      15
%FLAG BONDS_WITHOUT_HYDROGEN                                                    
%FORMAT(10I8)                                                                   
       0       3       1       0      84       1       0      87       2       3
       6       1       6       9       1       9      12       4       9      81
       1      12      15       4      12      78       5      15      18       1
      15      75       1      18      21       1      21      24       1      24
      27       6      24      72       1      27      30       6      30      33
       1      30      69       1      33      36       2      33      57       1
      36      39       7      39      42       9      39      54      10      42
      45       9      45      48       7      45      51       9      51      54
      12      57      60       1      60      63       6      60      66       1
      63     147       6      66      69       1      72      75       1      81
      84       1     147     150       1     147     231       1     150     153
       1     153     156       1     156     159       4     156     228       1
     159     162       4     159     225       5     162     165       1     162
     222       1     165     168       1     168     171       1     171     174
       6     171     219       1     174     177       6     177     180       1
     177     216       1     180     183       2     180     204       1     183
     186       7     186     189       9     186     201      10     189     192
       9     192     195       7     192     198       9     198     201      12
     204     207       1     207     210       6     207     213       1     210
     291       6     213     216       1     219     222       1     228     231
       1     291     294       1     291     375       1     294     297       1
     297     300       1     300     303       4     300     372       1     303
     306       4     303     369       5     306     309       1     306     366
       1     309     312       1     312     315       1     315     318       6
     315     363       1     318     321       6     321     324       1     321
     360       1     324     327       2     324     348       1     327     330
       7     330     333       9     330     345      10     333     336       9
     336     339       7     336     342       9     342     345      12     348
     351       1     351     354       6     351     357       1     354     435
       6     357     360       1     363     366       1     372     375       1
     435     438       1     435     519       1     438     441       1     441
     444       1     444     447       4     444     516       1     447     450
       4     447     513       5     450     453       1     450     510       1
     453     456       1     456     459       1     459     462       6     459
     507       1     462     465       6     465     468       1     465     504
       1     468     471       2     468     492       1     471     474       7
     474     477       9     474     489      10     477     480       9     480
     483       7     480     486       9     486     489      12     492     495
       1     495     498       6     495     501       1     498     579       6
     501     504       1     507     510       1     516     519       1     579
     582       1     579     663       1     582     585       1     585     588
       1     588     591       4     588     660       1     591     594       4
     591     657       5     594     597       1     594     654       1     597
     600       1     600     603       1     603     606       6     603     651
       1     606     609       6     609     612       1     609     648       1
     612     615       2     612     636       1     615     618       7     618
     621       9     618     633      10     621     624       9     624     627
       7     624     630       9     630     633      12     636     639       1
     639     642       6     639     645       1     642     705      16     645
     648       1     651     654       1     660     663       1
%FLAG ANGLES_INC_HYDROGEN                                                       
%FORMAT(10I8)                                                                   
       0       3      90       2       0      84     144       2       0      87
     726       3       0      87     729       3       0      87     732       3
       3       6      93       2       6       3      90       2       9       6
      93       2       9      81     141       2      15      18      96       2
      15      75     138       2      18      21      99       2      21      18
      96       2      24      21      99       2      24      72     135       2
      30      69     132       2      33      36     102      11      33      36
     105      11      33      57     126       2      39      36     102      14
      39      36     105      14      39      42     108      16      39      54
     123      18      45      42     108      16      45      48     111      14
      45      48     114      14      45      48     117      14      45      51
     120      22      51      54     123      23      54      51     120      24
      60      57     126       2      60      66     129       2      66      69
     132       2      69      66     129       2      72      75     138       2
      75      72     135       2      81      84     144       2      84      81
     141       2     102      36     105      25     111      48     114      25
     111      48     117      25     114      48     117      25     147     150
     234       2     147     231     288       2     150     153     237       2
     153     150     234       2     156     153     237       2     156     228
     285       2     162     165     240       2     162     222     282       2
     165     168     243       2     168     165     240       2     171     168
     243       2     171     219     279       2     177     216     276       2
     180     183     246      11     180     183     249      11     180     204
     270       2     186     183     246      14     186     183     249      14
     186     189     252      16     186     201     267      18     192     189
     252      16     192     195     255      14     192     195     258      14
     192     195     261      14     192     198     264      22     198     201
     267      23     201     198     264      24     207     204     270       2
     207     213     273       2     213     216     276       2     216     213
     273       2     219     222     282       2     222     219     279       2
     228     231     288       2     231     228     285       2     246     183
     249      25     255     195     258      25     255     195     261      25
     258     195     261      25     291     294     378       2     291     375
     432       2     294     297     381       2     297     294     378       2
     300     297     381       2     300     372     429       2     306     309
     384       2     306     366     426       2     309     312     387       2
     312     309     384       2     315     312     387       2     315     363
     423       2     321     360     420       2     324     327     390      11
     324     327     393      11     324     348     414       2     330     327
     390      14     330     327     393      14     330     333     396      16
     330     345     411      18     336     333     396      16     336     339
     399      14     336     339     402      14     336     339     405      14
     336     342     408      22     342     345     411      23     345     342
     408      24     351     348     414       2     351     357     417       2
     357     360     420       2     360     357     417       2     363     366
     426       2     366     363     423       2     372     375     432       2
     375     372     429       2     390     327     393      25     399     339
     402      25     399     339     405      25     402     339     405      25
     435     438     522       2     435     519     576       2     438     441
     525       2     441     438     522       2     444     441     525       2
     444     516     573       2     450     453     528       2     450     510
     570       2     453     456     531       2     456     453     528       2
     459     456     531       2     459     507     567       2     465     504
     564       2     468     471     534      11     468     471     537      11
     468     492     558       2     474     471     534      14     474     471
     537      14     474     477     540      16     474     489     555      18
     480     477     540      16     480     483     543      14     480     483
     546      14     480     483     549      14     480     486     552      22
     486     489     555      23     489     486     552      24     495     492
     558       2     495     501     561       2     501     504     564       2
     504     501     561       2     507     510     570       2     510     507
     567       2     516     519     576       2     519     516     573       2
     534     471     537      25     543     483     546      25     543     483
     549      25     546     483     549      25     579     582     666       2
     579     663     723       2     582     585     669       2     585     582
     666       2     588     585     669       2     588     660     720       2
     594     597     672       2     594     654     717       2     597     600
     675       2     600     597     672       2     603     600     675       2
     603     651     714       2     609     648     711       2     612     615
     678      11     612     615     681      11     612     636     702       2
     618     615     678      14     618     615     681      14     618     621
     684      16     618     633     699      18     624     621     684      16
     624     627     687      14     624     627     690      14     624     627
     693      14     624     630     696      22     630     633     699      23
     633     630     696      24     639     636     702       2     639     645
     708       2     642     705     735      27     642     705     738      27
     642     705     741      27     645     648     711       2     648     645
     708       2     651     654     717       2     654     651     714       2
     660     663     723       2     663     660     720       2     678     615
     681      25     687     627     690      25     687     627     693      25
     690     627     693      25     726      87     729      28     726      87
     732      28     729      87     732      28     735     705     738      28
     735     705     741      28     738     705     741      28
%FLAG ANGLES_WITHOUT_HYDROGEN                                                   
%FORMAT(10I8)                                                                   
       0       3       6       1       0      84      81       1       3       0
      84       1       3       0      87       4       3       6       9       1
       6       9      12       5       6       9      81       1       9      12
      15       6       9      12      78       7       9      81      84       1
      12       9      81       5      12      15      18       5      12      15
      75       5      15      12      78       7      15      18      21       1
      15      75      72       1      18      15      75       1      18      21
      24       1      21      24      27       8      21      24      72       1
      24      27      30       9      24      72      75       1      27      24
      72       8      27      30      33       8      27      30      69       8
      30      33      36       4      30      33      57       1      30      69
      66       1      33      30      69       1      33      36      39      10
      33      57      60       1      36      33      57       4      36      39
      42      12      36      39      54      13      39      42      45      15
      39      54      51      17      42      39      54      19      42      45
      48      12      42      45      51      20      45      51      54      21
      48      45      51      12      57      60      63       8      57      60
      66       1      60      63     147       9      60      66      69       1
      63      60      66       8      63     147     150       8      63     147
     231       8      84       0      87       4     147     150     153       1
     147     231     228       1     150     147     231       1     150     153
     156       1     153     156     159       5     153     156     228       1
     156     159     162       6     156     159     225       7     156     228
     231       1     159     156     228       5     159     162     165       5
     159     162     222       5     162     159     225       7     162     165
     168       1     162     222     219       1     165     162     222       1
     165     168     171       1     168     171     174       8     168     171
     219       1     171     174     177       9     171     219     222       1
     174     171     219       8     174     177     180       8     174     177
     216       8     177     180     183       4     177     180     204       1
     177     216     213       1     180     177     216       1     180     183
     186      10     180     204     207       1     183     180     204       4
     183     186     189      12     183     186     201      13     186     189
     192      15     186     201     198      17     189     186     201      19
     189     192     195      12     189     192     198      20     192     198
     201      21     195     192     198      12     204     207     210       8
     204     207     213       1     207     210     291       9     207     213
     216       1     210     207     213       8     210     291     294       8
     210     291     375       8     291     294     297       1     291     375
     372       1     294     291     375       1     294     297     300       1
     297     300     303       5     297     300     372       1     300     303
     306       6     300     303     369       7     300     372     375       1
     303     300     372       5     303     306     309       5     303     306
     366       5     306     303     369       7     306     309     312       1
     306     366     363       1     309     306     366       1     309     312
     315       1     312     315     318       8     312     315     363       1
     315     318     321       9     315     363     366       1     318     315
     363       8     318     321     324       8     318     321     360       8
     321     324     327       4     321     324     348       1     321     360
     357       1     324     321     360       1     324     327     330      10
     324     348     351       1     327     324     348       4     327     330
     333      12     327     330     345      13     330     333     336      15
     330     345     342      17     333     330     345      19     333     336
     339      12     333     336     342      20     336     342     345      21
     339     336     342      12     348     351     354       8     348     351
     357       1     351     354     435       9     351     357     360       1
     354     351     357       8     354     435     438       8     354     435
     519       8     435     438     441       1     435     519     516       1
     438     435     519       1     438     441     444       1     441     444
     447       5     441     444     516       1     444     447     450       6
     444     447     513       7     444     516     519       1     447     444
     516       5     447     450     453       5     447     450     510       5
     450     447     513       7     450     453     456       1     450     510
     507       1     453     450     510       1     453     456     459       1
     456     459     462       8     456     459     507       1     459     462
     465       9     459     507     510       1     462     459     507       8
     462     465     468       8     462     465     504       8     465     468
     471       4     465     468     492       1     465     504     501       1
     468     465     504       1     468     471     474      10     468     492
     495       1     471     468     492       4     471     474     477      12
     471     474     489      13     474     477     480      15     474     489
     486      17     477     474     489      19     477     480     483      12
     477     480     486      20     480     486     489      21     483     480
     486      12     492     495     498       8     492     495     501       1
     495     498     579       9     495     501     504       1     498     495
     501       8     498     579     582       8     498     579     663       8
     579     582     585       1     579     663     660       1     582     579
     663       1     582     585     588       1     585     588     591       5
     585     588     660       1     588     591     594       6     588     591
     657       7     588     660     663       1     591     588     660       5
     591     594     597       5     591     594     654       5     594     591
     657       7     594     597     600       1     594     654     651       1
     597     594     654       1     597     600     603       1     600     603
     606       8     600     603     651       1     603     606     609       9
     603     651     654       1     606     603     651       8     606     609
     612       8     606     609     648       8     609     612     615       4
     609     612     636       1     609     648     645       1     612     609
     648       1     612     615     618      10     612     636     639       1
     615     612     636       4     615     618     621      12     615     618
     633      13     618     621     624      15     618     633     630      17
     621     618     633      19     621     624     627      12     621     624
     630      20     624     630     633      21     627     624     630      12
     636     639     642       8     636     639     645       1     639     642
     705      26     639     645     648       1     642     639     645       8
%FLAG DIHEDRALS_INC_HYDROGEN                                                    
%FORMAT(10I8)                                                                   
       0       3       6      93       1       0      84      81     141       1
       3       0      84     144       1       3       0      87     726       2
       3       0      87     729       2       3       0      87     732       2
       6       9      81     141       1       9       6       3      90       1
       9      81      84     144       1      12       9       6      93       1
      12       9      81     141       1      12      15      18      96       1
      12      15      75     138       1      15      18      21      99       1
      15      75      72     135       1      18      15      75     138       1
      21      24      72     135       1      24      21      18      96       1
      24      72      75     138       1      27      24      21      99       1
      27      24      72     135       1      27      30      69     132       1
      30      33      36     102       7      30      33      36     105       7
      30      33      57     126       1      30      69      66     129       1
      33      30      69     132       1      36      33      57     126       1
      36      39      42     108       9      36      39      54     123       9
      39      54      51     120      10      42      39      36     102       7
      42      39      36     105       7      42      39      54     123       9
      42      45      48     111       7      42      45      48     114       7
      42      45      48     117       7      42      45      51     120       9
      45      51      54     123      10      48      45      42     108       9
      48      45      51     120       9      51      45      42     108       9
      51      45      48     111       7      51      45      48     114       7
      51      45      48     117       7      54      39      36     102       7
      54      39      36     105       7      54      39      42     108       9
      57      33      36     102       7      57      33      36     105       7
      57      60      66     129       1      60      66      69     132       1
      63      60      57     126       1      63      60      66     129       1
      63     147     150     234       1      63     147     231     288       1
      66      60      57     126       1      72      24      21      99       1
      75      15      18      96       1      81       9       6      93       1
      84       0       3      90       1      84       0      87     726       2
      84       0     -87     726       7      84       0      87     729       2
      84       0     -87     729       7      84       0      87     732       2
      84       0     -87     732       7      87       0       3      90       1
      87       0      84     144       1      90       3       6      93       1
      96      18      21      99       1     120      51      54     123      10
     129      66      69     132       1     135      72      75     138       1
     141      81      84     144       1     147     150     153     237       1
     147     231     228     285       1     150     147     231     288       1
     153     156     228     285       1     156     153     150     234       1
     156     228     231     288       1     159     156     153     237       1
     159     156     228     285       1     159     162     165     240       1
     159     162     222     282       1     162     165     168     243       1
     162     222     219     279       1     165     162     222     282       1
     168     171     219     279       1     171     168     165     240       1
     171     219     222     282       1     174     171     168     243       1
     174     171     219     279       1     174     177     216     276       1
     177     180     183     246       7     177     180     183     249       7
     177     180     204     270       1     177     216     213     273       1
     180     177     216     276       1     183     180     204     270       1
     183     186     189     252       9     183     186     201     267       9
     186     201     198     264      10     189     186     183     246       7
     189     186     183     249       7     189     186     201     267       9
     189     192     195     255       7     189     192     195     258       7
     189     192     195     261       7     189     192     198     264       9
     192     198     201     267      10     195     192     189     252       9
     195     192     198     264       9     198     192     189     252       9
     198     192     195     255       7     198     192     195     258       7
     198     192     195     261       7     201     186     183     246       7
     201     186     183     249       7     201     186     189     252       9
     204     180     183     246       7     204     180     183     249       7
     204     207     213     273       1     207     213     216     276       1
     210     207     204     270       1     210     207     213     273       1
     210     291     294     378       1     210     291     375     432       1
     213     207     204     270       1     219     171     168     243       1
     222     162     165     240       1     228     156     153     237       1
     231     147     150     234       1     234     150     153     237       1
     240     165     168     243       1     264     198     201     267      10
     273     213     216     276       1     279     219     222     282       1
     285     228     231     288       1     291     294     297     381       1
     291     375     372     429       1     294     291     375     432       1
     297     300     372     429       1     300     297     294     378       1
     300     372     375     432       1     303     300     297     381       1
     303     300     372     429       1     303     306     309     384       1
     303     306     366     426       1     306     309     312     387       1
     306     366     363     423       1     309     306     366     426       1
     312     315     363     423       1     315     312     309     384       1
     315     363     366     426       1     318     315     312     387       1
     318     315     363     423       1     318     321     360     420       1
     321     324     327     390       7     321     324     327     393       7
     321     324     348     414       1     321     360     357     417       1
     324     321     360     420       1     327     324     348     414       1
     327     330     333     396       9     327     330     345     411       9
     330     345     342     408      10     333     330     327     390       7
     333     330     327     393       7     333     330     345     411       9
     333     336     339     399       7     333     336     339     402       7
     333     336     339     405       7     333     336     342     408       9
     336     342     345     411      10     339     336     333     396       9
     339     336     342     408       9     342     336     333     396       9
     342     336     339     399       7     342     336     339     402       7
     342     336     339     405       7     345     330     327     390       7
     345     330     327     393       7     345     330     333     396       9
     348     324     327     390       7     348     324     327     393       7
     348     351     357     417       1     351     357     360     420       1
     354     351     348     414       1     354     351     357     417       1
     354     435     438     522       1     354     435     519     576       1
     357     351     348     414       1     363     315     312     387       1
     366     306     309     384       1     372     300     297     381       1
     375     291     294     378       1     378     294     297     381       1
     384     309     312     387       1     408     342     345     411      10
     417     357     360     420       1     423     363     366     426       1
     429     372     375     432       1     435     438     441     525       1
     435     519     516     573       1     438     435     519     576       1
     441     444     516     573       1     444     441     438     522       1
     444     516     519     576       1     447     444     441     525       1
     447     444     516     573       1     447     450     453     528       1
     447     450     510     570       1     450     453     456     531       1
     450     510     507     567       1     453     450     510     570       1
     456     459     507     567       1     459     456     453     528       1
     459     507     510     570       1     462     459     456     531       1
     462     459     507     567       1     462     465     504     564       1
     465     468     471     534       7     465     468     471     537       7
     465     468     492     558       1     465     504     501     561       1
     468     465     504     564       1     471     468     492     558       1
     471     474     477     540       9     471     474     489     555       9
     474     489     486     552      10     477     474     471     534       7
     477     474     471     537       7     477     474     489     555       9
     477     480     483     543       7     477     480     483     546       7
     477     480     483     549       7     477     480     486     552       9
     480     486     489     555      10     483     480     477     540       9
     483     480     486     552       9     486     480     477     540       9
     486     480     483     543       7     486     480     483     546       7
     486     480     483     549       7     489     474     471     534       7
     489     474     471     537       7     489     474     477     540       9
     492     468     471     534       7     492     468     471     537       7
     492     495     501     561       1     495     501     504     564       1
     498     495     492     558       1     498     495     501     561       1
     498     579     582     666       1     498     579     663     723       1
     501     495     492     558       1     507     459     456     531       1
     510     450     453     528       1     516     444     441     525       1
     519     435     438     522       1     522     438     441     525       1
     528     453     456     531       1     552     486     489     555      10
     561     501     504     564       1     567     507     510     570       1
     573     516     519     576       1     579     582     585     669       1
     579     663     660     720       1     582     579     663     723       1
     585     588     660     720       1     588     585     582     666       1
     588     660     663     723       1     591     588     585     669       1
     591     588     660     720       1     591     594     597     672       1
     591     594     654     717       1     594     597     600     675       1
     594     654     651     714       1     597     594     654     717       1
     600     603     651     714       1     603     600     597     672       1
     603     651     654     717       1     606     603     600     675       1
     606     603     651     714       1     606     609     648     711       1
     609     612     615     678       7     609     612     615     681       7
     609     612     636     702       1     609     648     645     708       1
     612     609     648     711       1     615     612     636     702       1
     615     618     621     684       9     615     618     633     699       9
     618     633     630     696      10     621     618     615     678       7
     621     618     615     681       7     621     618     633     699       9
     621     624     627     687       7     621     624     627     690       7
     621     624     627     693       7     621     624     630     696       9
     624     630     633     699      10     627     624     621     684       9
     627     624     630     696       9     630     624     621     684       9
     630     624     627     687       7     630     624     627     690       7
     630     624     627     693       7     633     618     615     678       7
     633     618     615     681       7     633     618     621     684       9
     636     612     615     678       7     636     612     615     681       7
     636     639     645     708       1     639     642     705     735      12
     639     642     705     738      12     639     642     705     741      12
     639     645     648     711       1     642     639     636     702       1
     642     639     645     708       1     645     639     636     702       1
     651     603     600     675       1     654     594     597     672       1
     660     588     585     669       1     663     579     582     666       1
     666     582     585     669       1     672     597     600     675       1
     696     630     633     699      10     708     645     648     711       1
     714     651     654     717       1     720     660     663     723       1
       0       6      -3     -90      13       3       9      -6     -93      13
      15      21     -18     -96      13      18      24     -21     -99      13
     108      39     -42     -45      13      54     120     -51     -45      13
      51     123     -54     -39      13      33      60     -57    -126      13
      60      69     -66    -129      13      30      66     -69    -132      13
      24      75     -72    -135      13      15      72     -75    -138      13
       9      84     -81    -141      13       0      81     -84    -144      13
     147     153    -150    -234      13     150     156    -153    -237      13
     162     168    -165    -240      13     165     171    -168    -243      13
     252     186    -189    -192      13     201     264    -198    -192      13
     198     267    -201    -186      13     180     207    -204    -270      13
     207     216    -213    -273      13     177     213    -216    -276      13
     171     222    -219    -279      13     162     219    -222    -282      13
     156     231    -228    -285      13     147     228    -231    -288      13
     291     297    -294    -378      13     294     300    -297    -381      13
     306     312    -309    -384      13     309     315    -312    -387      13
     396     330    -333    -336      13     345     408    -342    -336      13
     342     411    -345    -330      13     324     351    -348    -414      13
     351     360    -357    -417      13     321     357    -360    -420      13
     315     366    -363    -423      13     306     363    -366    -426      13
     300     375    -372    -429      13     291     372    -375    -432      13
     435     441    -438    -522      13     438     444    -441    -525      13
     450     456    -453    -528      13     453     459    -456    -531      13
     540     474    -477    -480      13     489     552    -486    -480      13
     486     555    -489    -474      13     468     495    -492    -558      13
     495     504    -501    -561      13     465     501    -504    -564      13
     459     510    -507    -567      13     450     507    -510    -570      13
     444     519    -516    -573      13     435     516    -519    -576      13
     579     585    -582    -666      13     582     588    -585    -669      13
     594     600    -597    -672      13     597     603    -600    -675      13
     684     618    -621    -624      13     633     696    -630    -624      13
     630     699    -633    -618      13     612     639    -636    -702      13
     639     648    -645    -708      13     609     645    -648    -711      13
     603     654    -651    -714      13     594     651    -654    -717      13
     588     663    -660    -720      13     579     660    -663    -723      13
%FLAG DIHEDRALS_WITHOUT_HYDROGEN                                                
%FORMAT(10I8)                                                                   
       0       3       6       9       1       0      84     -81       9       1
       3       0      84      81       1       3       6       9      12       1
       3       6      -9      81       1      84       0       3       6       1
      87       0       3       6       1       6       9      12      15       3
       6       9      12      78       4       6       9     -81      84       1
       9      12      15      18       3       9      12      15      75       3
      12       9      81      84       1      12      15      18      21       1
      12      15      75      72       1      15      12       9      81       3
      15      18      21      24       1      15      75     -72      24       1
      18      15      12      78       4      18      15      75      72       1
      18      21      24      27       1      18      21     -24      72       1
      21      18      15      75       1      21      24      27      30       5
      21      24     -72      75       1      24      27      30      33       5
      24      27      30      69       5      27      24      72      75       1
      27      30      33      36       1      27      30      33      57       1
      27      30      69      66       1      30      27      24      72       5
      30      33      36      39       6      30      33      57      60       1
      30      69     -66      60       1      33      30      69      66       1
      33      36      39      42       8      33      36      39      54       7
      33      57      60      63       1      33      57     -60      66       1
      36      33      30      69       1      36      33      57      60       1
      36      39      42      45       9      36      39      54      51       9
      39      36      33      57       6      39      42      45      48       9
      39      42     -45      51       9      39      54     -51      45      10
      42      39     -54      51       9      42      45     -51      54       9
      45      42     -39      54       9      48      45      51      54       9
      57      33      30      69       1      57      60      63     147       5
      57      60     -66      69       1      60      63     147     150       5
      60      63     147     231       5      63      60      66      69       1
      63     147     150     153       1      63     147     231     228       1
      66      60      63     147       5      75      15      12      78       4
      78      12       9      81       4      87       0      84      81       1
     147     150     153     156       1     147     231    -228     156       1
     150     147     231     228       1     150     153     156     159       1
     150     153    -156     228       1     153     150     147     231       1
     153     156     159     162       3     153     156     159     225       4
     153     156    -228     231       1     156     159     162     165       3
     156     159     162     222       3     159     156     228     231       1
     159     162     165     168       1     159     162     222     219       1
     162     159     156     228       3     162     165     168     171       1
     162     222    -219     171       1     165     162     159     225       4
     165     162     222     219       1     165     168     171     174       1
     165     168    -171     219       1     168     165     162     222       1
     168     171     174     177       5     168     171    -219     222       1
     171     174     177     180       5     171     174     177     216       5
     174     171     219     222       1     174     177     180     183       1
     174     177     180     204       1     174     177     216     213       1
     177     174     171     219       5     177     180     183     186       6
     177     180     204     207       1     177     216    -213     207       1
     180     177     216     213       1     180     183     186     189       8
     180     183     186     201       7     180     204     207     210       1
     180     204    -207     213       1     183     180     177     216       1
     183     180     204     207       1     183     186     189     192       9
     183     186     201     198       9     186     183     180     204       6
     186     189     192     195       9     186     189    -192     198       9
     186     201    -198     192      10     189     186    -201     198       9
     189     192    -198     201       9     192     189    -186     201       9
     195     192     198     201       9     204     180     177     216       1
     204     207     210     291       5     204     207    -213     216       1
     207     210     291     294       5     207     210     291     375       5
     210     207     213     216       1     210     291     294     297       1
     210     291     375     372       1     213     207     210     291       5
     222     162     159     225       4     225     159     156     228       4
     291     294     297     300       1     291     375    -372     300       1
     294     291     375     372       1     294     297     300     303       1
     294     297    -300     372       1     297     294     291     375       1
     297     300     303     306       3     297     300     303     369       4
     297     300    -372     375       1     300     303     306     309       3
     300     303     306     366       3     303     300     372     375       1
     303     306     309     312       1     303     306     366     363       1
     306     303     300     372       3     306     309     312     315       1
     306     366    -363     315       1     309     306     303     369       4
     309     306     366     363       1     309     312     315     318       1
     309     312    -315     363       1     312     309     306     366       1
     312     315     318     321       5     312     315    -363     366       1
     315     318     321     324       5     315     318     321     360       5
     318     315     363     366       1     318     321     324     327       1
     318     321     324     348       1     318     321     360     357       1
     321     318     315     363       5     321     324     327     330       6
     321     324     348     351       1     321     360    -357     351       1
     324     321     360     357       1     324     327     330     333       8
     324     327     330     345       7     324     348     351     354       1
     324     348    -351     357       1     327     324     321     360       1
     327     324     348     351       1     327     330     333     336       9
     327     330     345     342       9     330     327     324     348       6
     330     333     336     339       9     330     333    -336     342       9
     330     345    -342     336      10     333     330    -345     342       9
     333     336    -342     345       9     336     333    -330     345       9
     339     336     342     345       9     348     324     321     360       1
     348     351     354     435       5     348     351    -357     360       1
     351     354     435     438       5     351     354     435     519       5
     354     351     357     360       1     354     435     438     441       1
     354     435     519     516       1     357     351     354     435       5
     366     306     303     369       4     369     303     300     372       4
     435     438     441     444       1     435     519    -516     444       1
     438     435     519     516       1     438     441     444     447       1
     438     441    -444     516       1     441     438     435     519       1
     441     444     447     450       3     441     444     447     513       4
     441     444    -516     519       1     444     447     450     453       3
     444     447     450     510       3     447     444     516     519       1
     447     450     453     456       1     447     450     510     507       1
     450     447     444     516       3     450     453     456     459       1
     450     510    -507     459       1     453     450     447     513       4
     453     450     510     507       1     453     456     459     462       1
     453     456    -459     507       1     456     453     450     510       1
     456     459     462     465       5     456     459    -507     510       1
     459     462     465     468       5     459     462     465     504       5
     462     459     507     510       1     462     465     468     471       1
     462     465     468     492       1     462     465     504     501       1
     465     462     459     507       5     465     468     471     474       6
     465     468     492     495       1     465     504    -501     495       1
     468     465     504     501       1     468     471     474     477       8
     468     471     474     489       7     468     492     495     498       1
     468     492    -495     501       1     471     468     465     504       1
     471     468     492     495       1     471     474     477     480       9
     471     474     489     486       9     474     471     468     492       6
     474     477     480     483       9     474     477    -480     486       9
     474     489    -486     480      10     477     474    -489     486       9
     477     480    -486     489       9     480     477    -474     489       9
     483     480     486     489       9     492     468     465     504       1
     492     495     498     579       5     492     495    -501     504       1
     495     498     579     582       5     495     498     579     663       5
     498     495     501     504       1     498     579     582     585       1
     498     579     663     660       1     501     495     498     579       5
     510     450     447     513       4     513     447     444     516       4
     579     582     585     588       1     579     663    -660     588       1
     582     579     663     660       1     582     585     588     591       1
     582     585    -588     660       1     585     582     579     663       1
     585     588     591     594       3     585     588     591     657       4
     585     588    -660     663       1     588     591     594     597       3
     588     591     594     654       3     591     588     660     663       1
     591     594     597     600       1     591     594     654     651       1
     594     591     588     660       3     594     597     600     603       1
     594     654    -651     603       1     597     594     591     657       4
     597     594     654     651       1     597     600     603     606       1
     597     600    -603     651       1     600     597     594     654       1
     600     603     606     609       5     600     603    -651     654       1
     603     606     609     612       5     603     606     609     648       5
     606     603     651     654       1     606     609     612     615       1
     606     609     612     636       1     606     609     648     645       1
     609     606     603     651       5     609     612     615     618       6
     609     612     636     639       1     609     648    -645     639       1
     612     609     648     645       1     612     615     618     621       8
     612     615     618     633       7     612     636     639     642       1
     612     636    -639     645       1     615     612     609     648       1
     615     612     636     639       1     615     618     621     624       9
     615     618     633     630       9     618     615     612     636       6
     618     621     624     627       9     618     621    -624     630       9
     618     633    -630     624      10     621     618    -633     630       9
     621     624    -630     633       9     624     621    -618     633       9
     627     624     630     633       9     636     612     609     648       1
     636     639     642     705      11     636     639    -645     648       1
     642     639     645     648       1     645     639     642     705      11
     654     594     591     657       4     657     591     588     660       4
      87       0     -84      -3      13      12       6      -9     -81      13
       9      15     -12     -78      14      12      18     -15     -75      13
      21      72     -24     -27      13      33      69     -30     -27      13
      36      30     -33     -57      13      36      42     -39     -54      13
      48      42     -45     -51      13      57      66     -60     -63      13
     150     231    -147     -63      13     159     153    -156    -228      13
     156     162    -159    -225      14     159     165    -162    -222      13
     168     219    -171    -174      13     180     216    -177    -174      13
     183     177    -180    -204      13     183     189    -186    -201      13
     195     189    -192    -198      13     204     213    -207    -210      13
     294     375    -291    -210      13     303     297    -300    -372      13
     300     306    -303    -369      14     303     309    -306    -366      13
     312     363    -315    -318      13     324     360    -321    -318      13
     327     321    -324    -348      13     327     333    -330    -345      13
     339     333    -336    -342      13     348     357    -351    -354      13
     438     519    -435    -354      13     447     441    -444    -516      13
     444     450    -447    -513      14     447     453    -450    -510      13
     456     507    -459    -462      13     468     504    -465    -462      13
     471     465    -468    -492      13     471     477    -474    -489      13
     483     477    -480    -486      13     492     501    -495    -498      13
     582     663    -579    -498      13     591     585    -588    -660      13
     588     594    -591    -657      14     591     597    -594    -654      13
     600     651    -603    -606      13     612     648    -609    -606      13
     615     609    -612    -636      13     615     621    -618    -633      13
     627     621    -624    -630      13     636     645    -639    -642      13
%FLAG EXCLUDED_ATOMS_LIST                                                       
%FORMAT(10I8)                                                                   
       2       3       4      28      29      30      31      32      48      49
     243     244     245       3       4       5      28      29      30      31
      32      49     243     244     245       4       5       6      27      28
      29      30      31      32      48       5       6       7      26      27
      28      29      31      32      48      49       6       7       8      25
      26      27      28      29      32      33      47      48       7       8
       9      25      26      27      28      33      34      46      47       8
       9      10      25      26      27      33      34      47       9      10
      11      25      26      33      34      46      10      11      12      24
      25      26      33      34      46      47      11      12      13      20
      23      24      25      26      34      45      46      12      13      14
      20      21      23      24      25      35      36      43      44      45
      13      14      15      19      20      21      22      23      24      35
      36      43      45      14      15      16      18      19      20      21
      24      35      36      37      42      43      15      16      17      18
      19      20      35      36      37      41      42      16      17      18
      19      35      36      37      38      39      40      41      42      17
      18      19      37      38      39      40      41      42      18      19
      37      38      39      40      41      19      37      38      39      40
      41      42      35      36      37      41      42      21      22      23
      24      35      36      43      44      50      22      23      24      43
      44      45      50      51      78      23      24      43      44      50
      51      52      77      78      79      97      24      43      44      45
      50      44      45      26      34      46      47      27      33      46
      47      28      29      30      32      48      49      30      31      48
      49     243     244     245      31      49     243     244     245      32
       0      34       0      36       0       0      39      40      40       0
      42       0       0      45       0      47       0      49       0      51
      52      53      77      78      79      80      96      97      52      53
      54      77      78      79      80      97      53      54      55      76
      77      78      79      80      96      54      55      56      75      76
      77      78      79      80      96      97      55      56      57      74
      75      76      77      78      80      81      95      96      56      57
      58      74      75      76      77      81      82      94      95      57
      58      59      74      75      76      81      82      95      58      59
      60      74      75      81      82      94      59      60      61      73
      74      75      81      82      94      95      60      61      62      69
      72      73      74      75      82      93      94      61      62      63
      69      70      72      73      74      83      84      91      92      93
      62      63      64      68      69      70      71      72      73      83
      84      91      93      63      64      65      67      68      69      70
      73      83      84      85      90      91      64      65      66      67
      68      69      83      84      85      89      90      65      66      67
      68      83      84      85      86      87      88      89      90      66
      67      68      85      86      87      88      89      90      67      68
      85      86      87      88      89      68      85      86      87      88
      89      90      83      84      85      89      90      70      71      72
      73      83      84      91      92      98      71      72      73      91
      92      93      98      99     126      72      73      91      92      98
      99     100     125     126     127     145      73      91      92      93
      98      92      93      75      82      94      95      76      81      94
      95      77      78      80      96      97      79      96      97      80
       0      82       0      84       0       0      87      88      88       0
      90       0       0      93       0      95       0      97       0      99
     100     101     125     126     127     128     144     145     100     101
     102     125     126     127     128     145     101     102     103     124
     125     126     127     128     144     102     103     104     123     124
     125     126     127     128     144     145     103     104     105     122
     123     124     125     126     128     129     143     144     104     105
     106     122     123     124     125     129     130     142     143     105
     106     107     122     123     124     129     130     143     106     107
     108     122     123     129     130     142     107     108     109     121
     122     123     129     130     142     143     108     109     110     117
     120     121     122     123     130     141     142     109     110     111
     117     118     120     121     122     131     132     139     140     141
     110     111     112     116     117     118     119     120     121     131
     132     139     141     111     112     113     115     116     117     118
     121     131     132     133     138     139     112     113     114     115
     116     117     131     132     133     137     138     113     114     115
     116     131     132     133     134     135     136     137     138     114
     115     116     133     134     135     136     137     138     115     116
     133     134     135     136     137     116     133     134     135     136
     137     138     131     132     133     137     138     118     119     120
     121     131     132     139     140     146     119     120     121     139
     140     141     146     147     174     120     121     139     140     146
     147     148     173     174     175     193     121     139     140     141
     146     140     141     123     130     142     143     124     129     142
     143     125     126     128     144     145     127     144     145     128
       0     130       0     132       0       0     135     136     136       0
     138       0       0     141       0     143       0     145       0     147
     148     149     173     174     175     176     192     193     148     149
     150     173     174     175     176     193     149     150     151     172
     173     174     175     176     192     150     151     152     171     172
     173     174     175     176     192     193     151     152     153     170
     171     172     173     174     176     177     191     192     152     153
     154     170     171     172     173     177     178     190     191     153
     154     155     170     171     172     177     178     191     154     155
     156     170     171     177     178     190     155     156     157     169
     170     171     177     178     190     191     156     157     158     165
     168     169     170     171     178     189     190     157     158     159
     165     166     168     169     170     179     180     187     188     189
     158     159     160     164     165     166     167     168     169     179
     180     187     189     159     160     161     163     164     165     166
     169     179     180     181     186     187     160     161     162     163
     164     165     179     180     181     185     186     161     162     163
     164     179     180     181     182     183     184     185     186     162
     163     164     181     182     183     184     185     186     163     164
     181     182     183     184     185     164     181     182     183     184
     185     186     179     180     181     185     186     166     167     168
     169     179     180     187     188     194     167     168     169     187
     188     189     194     195     222     168     169     187     188     194
     195     196     221     222     223     242     169     187     188     189
     194     188     189     171     178     190     191     172     177     190
     191     173     174     176     192     193     175     192     193     176
       0     178       0     180       0       0     183     184     184       0
     186       0       0     189       0     191       0     193       0     195
     196     197     221     222     223     224     241     242     196     197
     198     221     222     223     224     242     197     198     199     220
     221     222     223     224     241     198     199     200     219     220
     221     222     223     224     241     242     199     200     201     218
     219     220     221     222     224     225     240     241     200     201
     202     218     219     220     221     225     226     239     240     201
     202     203     218     219     220     225     226     240     202     203
     204     218     219     225     226     239     203     204     205     217
     218     219     225     226     239     240     204     205     206     213
     216     217     218     219     226     238     239     205     206     207
     213     214     216     217     218     227     228     235     237     238
     206     207     208     212     213     214     215     216     217     227
     228     235     238     207     208     209     211     212     213     214
     217     227     228     229     234     235     208     209     210     211
     212     213     227     228     229     233     234     209     210     211
     212     227     228     229     230     231     232     233     234     210
     211     212     229     230     231     232     233     234     211     212
     229     230     231     232     233     212     229     230     231     232
     233     234     227     228     229     233     234     214     215     216
     217     227     228     235     236     237     215     216     217     235
     236     237     238     246     247     248     216     217     235     236
     237     246     247     248     217     235     236     237     238     237
     238     219     226     239     240     220     225     239     240     221
     222     224     241     242     223     241     242     224       0     226
       0     228       0       0     231     232     232       0     234       0
       0     246     247     248     238       0     240       0     242       0
     244     245     245       0     247     248     248       0
%FLAG HBOND_ACOEF                                                               
%FORMAT(5E16.8)                                                                 

%FLAG HBOND_BCOEF                                                               
%FORMAT(5E16.8)                                                                 

%FLAG HBCUT                                                                     
%FORMAT(5E16.8)                                                                 

%FLAG AMBER_ATOM_TYPE                                                           
%FORMAT(20a4)                                                                   
ca  ca  ca  ca  c   ca  ca  ca  ca  os  ca  ca  c3  na  cc  na  c3  cc  cd  ca  
ca  os  ca  ca  ca  ca  o   ca  ca  c3  ha  ha  ha  ha  h1  h1  h5  h1  h1  h1  
h4  h4  ha  ha  ha  ha  ha  ha  ha  ca  ca  ca  ca  c   ca  ca  ca  ca  os  ca  
ca  c3  na  cc  na  c3  cc  cd  ca  ca  os  ca  ca  ca  ca  o   ca  ca  ha  ha  
ha  ha  h1  h1  h5  h1  h1  h1  h4  h4  ha  ha  ha  ha  ha  ha  ha  ca  ca  ca  
ca  c   ca  ca  ca  ca  os  ca  ca  c3  na  cc  na  c3  cc  cd  ca  ca  os  ca  
ca  ca  ca  o   ca  ca  ha  ha  ha  ha  h1  h1  h5  h1  h1  h1  h4  h4  ha  ha  
ha  ha  ha  ha  ha  ca  ca  ca  ca  c   ca  ca  ca  ca  os  ca  ca  c3  na  cc  
na  c3  cc  cd  ca  ca  os  ca  ca  ca  ca  o   ca  ca  ha  ha  ha  ha  h1  h1  
h5  h1  h1  h1  h4  h4  ha  ha  ha  ha  ha  ha  ha  ca  ca  ca  ca  c   ca  ca  
ca  ca  os  ca  ca  c3  na  cc  na  c3  cc  cd  ca  ca  os  ca  ca  ca  ca  o   
ca  ca  ha  ha  ha  ha  h1  h1  h5  h1  h1  h1  h4  h4  ha  c3  ha  ha  ha  ha  
ha  ha  hc  hc  hc  hc  hc  hc  
%FLAG TREE_CHAIN_CLASSIFICATION                                                 
%FORMAT(20a4)                                                                   
BLA BLA BLA BLA BLA BLA BLA BLA BLA BLA BLA BLA BLA BLA BLA BLA BLA BLA BLA BLA 
BLA BLA BLA BLA BLA BLA BLA BLA BLA BLA BLA BLA BLA BLA BLA BLA BLA BLA BLA BLA 
BLA BLA BLA BLA BLA BLA BLA BLA BLA BLA BLA BLA BLA BLA BLA BLA BLA BLA BLA BLA 
BLA BLA BLA BLA BLA BLA BLA BLA BLA BLA BLA BLA BLA BLA BLA BLA BLA BLA BLA BLA 
BLA BLA BLA BLA BLA BLA BLA BLA BLA BLA BLA BLA BLA BLA BLA BLA BLA BLA BLA BLA 
BLA BLA BLA BLA BLA BLA BLA BLA BLA BLA BLA BLA BLA BLA BLA BLA BLA BLA BLA BLA 
BLA BLA BLA BLA BLA BLA BLA BLA BLA BLA BLA BLA BLA BLA BLA BLA BLA BLA BLA BLA 
BLA BLA BLA BLA BLA BLA BLA BLA BLA BLA BLA BLA BLA BLA BLA BLA BLA BLA BLA BLA 
BLA BLA BLA BLA BLA BLA BLA BLA BLA BLA BLA BLA BLA BLA BLA BLA BLA BLA BLA BLA 
BLA BLA BLA BLA BLA BLA BLA BLA BLA BLA BLA BLA BLA BLA BLA BLA BLA BLA BLA BLA 
BLA BLA BLA BLA BLA BLA BLA BLA BLA BLA BLA BLA BLA BLA BLA BLA BLA BLA BLA BLA 
BLA BLA BLA BLA BLA BLA BLA BLA BLA BLA BLA BLA BLA BLA BLA BLA BLA BLA BLA BLA 
BLA BLA BLA BLA BLA BLA BLA BLA 
%FLAG JOIN_ARRAY                                                                
%FORMAT(10I8)                                                                   
       0       0       0       0       0       0       0       0       0       0
       0       0       0       0       0       0       0       0       0       0
       0       0       0       0       0       0       0       0       0       0
       0       0       0       0       0       0       0       0       0       0
       0       0       0       0       0       0       0       0       0       0
       0       0       0       0       0       0       0       0       0       0
       0       0       0       0       0       0       0       0       0       0
       0       0       0       0       0       0       0       0       0       0
       0       0       0       0       0       0       0       0       0       0
       0       0       0       0       0       0       0       0       0       0
       0       0       0       0       0       0       0       0       0       0
       0       0       0       0       0       0       0       0       0       0
       0       0       0       0       0       0       0       0       0       0
       0       0       0       0       0       0       0       0       0       0
       0       0       0       0       0       0       0       0       0       0
       0       0       0       0       0       0       0       0       0       0
       0       0       0       0       0       0       0       0       0       0
       0       0       0       0       0       0       0       0       0       0
       0       0       0       0       0       0       0       0       0       0
       0       0       0       0       0       0       0       0       0       0
       0       0       0       0       0       0       0       0       0       0
       0       0       0       0       0       0       0       0       0       0
       0       0       0       0       0       0       0       0       0       0
       0       0       0       0       0       0       0       0       0       0
       0       0       0       0       0       0       0       0
%FLAG IROTAT                                                                    
%FORMAT(10I8)                                                                   
       0       0       0       0       0       0       0       0       0       0
       0       0       0       0       0       0       0       0       0       0
       0       0       0       0       0       0       0       0       0       0
       0       0       0       0       0       0       0       0       0       0
       0       0       0       0       0       0       0       0       0       0
       0       0       0       0       0       0       0       0       0       0
       0       0       0       0       0       0       0       0       0       0
       0       0       0       0       0       0       0       0       0       0
       0       0       0       0       0       0       0       0       0       0
       0       0       0       0       0       0       0       0       0       0
       0       0       0       0       0       0       0       0       0       0
       0       0       0       0       0       0       0       0       0       0
       0       0       0       0       0       0       0       0       0       0
       0       0       0       0       0       0       0       0       0       0
       0       0       0       0       0       0       0       0       0       0
       0       0       0       0       0       0       0       0       0       0
       0       0       0       0       0       0       0       0       0       0
       0       0       0       0       0       0       0       0       0       0
       0       0       0       0       0       0       0       0       0       0
       0       0       0       0       0       0       0       0       0       0
       0       0       0       0       0       0       0       0       0       0
       0       0       0       0       0       0       0       0       0       0
       0       0       0       0       0       0       0       0       0       0
       0       0       0       0       0       0       0       0       0       0
       0       0       0       0       0       0       0       0
%FLAG RADIUS_SET                                                                
%FORMAT(1a80)                                                                   
modified Bondi radii (mbondi)                                                   
%FLAG RADII                                                                     
%FORMAT(5E16.8)                                                                 
  1.70000000E+00  1.70000000E+00  1.70000000E+00  1.70000000E+00  1.70000000E+00
  1.70000000E+00  1.70000000E+00  1.70000000E+00  1.70000000E+00  1.50000000E+00
  1.70000000E+00  1.70000000E+00  1.70000000E+00  1.55000000E+00  1.70000000E+00
  1.55000000E+00  1.70000000E+00  1.70000000E+00  1.70000000E+00  1.70000000E+00
  1.70000000E+00  1.50000000E+00  1.70000000E+00  1.70000000E+00  1.70000000E+00
  1.70000000E+00  1.50000000E+00  1.70000000E+00  1.70000000E+00  1.70000000E+00
  1.30000000E+00  1.30000000E+00  1.30000000E+00  1.30000000E+00  1.30000000E+00
  1.30000000E+00  1.30000000E+00  1.30000000E+00  1.30000000E+00  1.30000000E+00
  1.30000000E+00  1.30000000E+00  1.30000000E+00  1.30000000E+00  1.30000000E+00
  1.30000000E+00  1.30000000E+00  1.30000000E+00  1.30000000E+00  1.70000000E+00
  1.70000000E+00  1.70000000E+00  1.70000000E+00  1.70000000E+00  1.70000000E+00
  1.70000000E+00  1.70000000E+00  1.70000000E+00  1.50000000E+00  1.70000000E+00
  1.70000000E+00  1.70000000E+00  1.55000000E+00  1.70000000E+00  1.55000000E+00
  1.70000000E+00  1.70000000E+00  1.70000000E+00  1.70000000E+00  1.70000000E+00
  1.50000000E+00  1.70000000E+00  1.70000000E+00  1.70000000E+00  1.70000000E+00
  1.50000000E+00  1.70000000E+00  1.70000000E+00  1.30000000E+00  1.30000000E+00
  1.30000000E+00  1.30000000E+00  1.30000000E+00  1.30000000E+00  1.30000000E+00
  1.30000000E+00  1.30000000E+00  1.30000000E+00  1.30000000E+00  1.30000000E+00
  1.30000000E+00  1.30000000E+00  1.30000000E+00  1.30000000E+00  1.30000000E+00
  1.30000000E+00  1.30000000E+00  1.70000000E+00  1.70000000E+00  1.70000000E+00
  1.70000000E+00  1.70000000E+00  1.70000000E+00  1.70000000E+00  1.70000000E+00
  1.70000000E+00  1.50000000E+00  1.70000000E+00  1.70000000E+00  1.70000000E+00
  1.55000000E+00  1.70000000E+00  1.55000000E+00  1.70000000E+00  1.70000000E+00
  1.70000000E+00  1.70000000E+00  1.70000000E+00  1.50000000E+00  1.70000000E+00
  1.70000000E+00  1.70000000E+00  1.70000000E+00  1.50000000E+00  1.70000000E+00
  1.70000000E+00  1.30000000E+00  1.30000000E+00  1.30000000E+00  1.30000000E+00
  1.30000000E+00  1.30000000E+00  1.30000000E+00  1.30000000E+00  1.30000000E+00
  1.30000000E+00  1.30000000E+00  1.30000000E+00  1.30000000E+00  1.30000000E+00
  1.30000000E+00  1.30000000E+00  1.30000000E+00  1.30000000E+00  1.30000000E+00
  1.70000000E+00  1.70000000E+00  1.70000000E+00  1.70000000E+00  1.70000000E+00
  1.70000000E+00  1.70000000E+00  1.70000000E+00  1.70000000E+00  1.50000000E+00
  1.70000000E+00  1.70000000E+00  1.70000000E+00  1.55000000E+00  1.70000000E+00
  1.55000000E+00  1.70000000E+00  1.70000000E+00  1.70000000E+00  1.70000000E+00
  1.70000000E+00  1.50000000E+00  1.70000000E+00  1.70000000E+00  1.70000000E+00
  1.70000000E+00  1.50000000E+00  1.70000000E+00  1.70000000E+00  1.30000000E+00
  1.30000000E+00  1.30000000E+00  1.30000000E+00  1.30000000E+00  1.30000000E+00
  1.30000000E+00  1.30000000E+00  1.30000000E+00  1.30000000E+00  1.30000000E+00
  1.30000000E+00  1.30000000E+00  1.30000000E+00  1.30000000E+00  1.30000000E+00
  1.30000000E+00  1.30000000E+00  1.30000000E+00  1.70000000E+00  1.70000000E+00
  1.70000000E+00  1.70000000E+00  1.70000000E+00  1.70000000E+00  1.70000000E+00
  1.70000000E+00  1.70000000E+00  1.50000000E+00  1.70000000E+00  1.70000000E+00
  1.70000000E+00  1.55000000E+00  1.70000000E+00  1.55000000E+00  1.70000000E+00
  1.70000000E+00  1.70000000E+00  1.70000000E+00  1.70000000E+00  1.50000000E+00
  1.70000000E+00  1.70000000E+00  1.70000000E+00  1.70000000E+00  1.50000000E+00
  1.70000000E+00  1.70000000E+00  1.30000000E+00  1.30000000E+00  1.30000000E+00
  1.30000000E+00  1.30000000E+00  1.30000000E+00  1.30000000E+00  1.30000000E+00
  1.30000000E+00  1.30000000E+00  1.30000000E+00  1.30000000E+00  1.30000000E+00
  1.70000000E+00  1.30000000E+00  1.30000000E+00  1.30000000E+00  1.30000000E+00
  1.30000000E+00  1.30000000E+00  1.30000000E+00  1.30000000E+00  1.30000000E+00
  1.30000000E+00  1.30000000E+00  1.30000000E+00
%FLAG SCREEN                                                                    
%FORMAT(5E16.8)                                                                 
  7.20000000E-01  7.20000000E-01  7.20000000E-01  7.20000000E-01  7.20000000E-01
  7.20000000E-01  7.20000000E-01  7.20000000E-01  7.20000000E-01  8.50000000E-01
  7.20000000E-01  7.20000000E-01  7.20000000E-01  7.90000000E-01  7.20000000E-01
  7.90000000E-01  7.20000000E-01  7.20000000E-01  7.20000000E-01  7.20000000E-01
  7.20000000E-01  8.50000000E-01  7.20000000E-01  7.20000000E-01  7.20000000E-01
  7.20000000E-01  8.50000000E-01  7.20000000E-01  7.20000000E-01  7.20000000E-01
  8.50000000E-01  8.50000000E-01  8.50000000E-01  8.50000000E-01  8.50000000E-01
  8.50000000E-01  8.50000000E-01  8.50000000E-01  8.50000000E-01  8.50000000E-01
  8.50000000E-01  8.50000000E-01  8.50000000E-01  8.50000000E-01  8.50000000E-01
  8.50000000E-01  8.50000000E-01  8.50000000E-01  8.50000000E-01  7.20000000E-01
  7.20000000E-01  7.20000000E-01  7.20000000E-01  7.20000000E-01  7.20000000E-01
  7.20000000E-01  7.20000000E-01  7.20000000E-01  8.50000000E-01  7.20000000E-01
  7.20000000E-01  7.20000000E-01  7.90000000E-01  7.20000000E-01  7.90000000E-01
  7.20000000E-01  7.20000000E-01  7.20000000E-01  7.20000000E-01  7.20000000E-01
  8.50000000E-01  7.20000000E-01  7.20000000E-01  7.20000000E-01  7.20000000E-01
  8.50000000E-01  7.20000000E-01  7.20000000E-01  8.50000000E-01  8.50000000E-01
  8.50000000E-01  8.50000000E-01  8.50000000E-01  8.50000000E-01  8.50000000E-01
  8.50000000E-01  8.50000000E-01  8.50000000E-01  8.50000000E-01  8.50000000E-01
  8.50000000E-01  8.50000000E-01  8.50000000E-01  8.50000000E-01  8.50000000E-01
  8.50000000E-01  8.50000000E-01  7.20000000E-01  7.20000000E-01  7.20000000E-01
  7.20000000E-01  7.20000000E-01  7.20000000E-01  7.20000000E-01  7.20000000E-01
  7.20000000E-01  8.50000000E-01  7.20000000E-01  7.20000000E-01  7.20000000E-01
  7.90000000E-01  7.20000000E-01  7.90000000E-01  7.20000000E-01  7.20000000E-01
  7.20000000E-01  7.20000000E-01  7.20000000E-01  8.50000000E-01  7.20000000E-01
  7.20000000E-01  7.20000000E-01  7.20000000E-01  8.50000000E-01  7.20000000E-01
  7.20000000E-01  8.50000000E-01  8.50000000E-01  8.50000000E-01  8.50000000E-01
  8.50000000E-01  8.50000000E-01  8.50000000E-01  8.50000000E-01  8.50000000E-01
  8.50000000E-01  8.50000000E-01  8.50000000E-01  8.50000000E-01  8.50000000E-01
  8.50000000E-01  8.50000000E-01  8.50000000E-01  8.50000000E-01  8.50000000E-01
  7.20000000E-01  7.20000000E-01  7.20000000E-01  7.20000000E-01  7.20000000E-01
  7.20000000E-01  7.20000000E-01  7.20000000E-01  7.20000000E-01  8.50000000E-01
  7.20000000E-01  7.20000000E-01  7.20000000E-01  7.90000000E-01  7.20000000E-01
  7.90000000E-01  7.20000000E-01  7.20000000E-01  7.20000000E-01  7.20000000E-01
  7.20000000E-01  8.50000000E-01  7.20000000E-01  7.20000000E-01  7.20000000E-01
  7.20000000E-01  8.50000000E-01  7.20000000E-01  7.20000000E-01  8.50000000E-01
  8.50000000E-01  8.50000000E-01  8.50000000E-01  8.50000000E-01  8.50000000E-01
  8.50000000E-01  8.50000000E-01  8.50000000E-01  8.50000000E-01  8.50000000E-01
  8.50000000E-01  8.50000000E-01  8.50000000E-01  8.50000000E-01  8.50000000E-01
  8.50000000E-01  8.50000000E-01  8.50000000E-01  7.20000000E-01  7.20000000E-01
  7.20000000E-01  7.20000000E-01  7.20000000E-01  7.20000000E-01  7.20000000E-01
  7.20000000E-01  7.20000000E-01  8.50000000E-01  7.20000000E-01  7.20000000E-01
  7.20000000E-01  7.90000000E-01  7.20000000E-01  7.90000000E-01  7.20000000E-01
  7.20000000E-01  7.20000000E-01  7.20000000E-01  7.20000000E-01  8.50000000E-01
  7.20000000E-01  7.20000000E-01  7.20000000E-01  7.20000000E-01  8.50000000E-01
  7.20000000E-01  7.20000000E-01  8.50000000E-01  8.50000000E-01  8.50000000E-01
  8.50000000E-01  8.50000000E-01  8.50000000E-01  8.50000000E-01  8.50000000E-01
  8.50000000E-01  8.50000000E-01  8.50000000E-01  8.50000000E-01  8.50000000E-01
  7.20000000E-01  8.50000000E-01  8.50000000E-01  8.50000000E-01  8.50000000E-01
  8.50000000E-01  8.50000000E-01  8.50000000E-01  8.50000000E-01  8.50000000E-01
  8.50000000E-01  8.50000000E-01  8.50000000E-01
%FLAG IPOL                                                                      
%FORMAT(1I8)                                                                    
       0
